 Entering Gaussian System, Link 0=/opt/uochb/soft/gaussian/gaussian16_a03/arch/amd64-pgi_12.10-acml/g16/g16
 Initial command:
 /opt/uochb/soft/gaussian/gaussian16_a03/arch/amd64-pgi_12.10-acml/g16/l1.exe "/dev/shm/Gau-4052168.inp" -scrdir="/dev/shm/"
 Entering Link 1 = /opt/uochb/soft/gaussian/gaussian16_a03/arch/amd64-pgi_12.10-acml/g16/l1.exe PID=   4052174.
  
 Copyright (c) 1988,1990,1992,1993,1995,1998,2003,2009,2016,
            Gaussian, Inc.  All Rights Reserved.
  
 This is part of the Gaussian(R) 16 program.  It is based on
 the Gaussian(R) 09 system (copyright 2009, Gaussian, Inc.),
 the Gaussian(R) 03 system (copyright 2003, Gaussian, Inc.),
 the Gaussian(R) 98 system (copyright 1998, Gaussian, Inc.),
 the Gaussian(R) 94 system (copyright 1995, Gaussian, Inc.),
 the Gaussian 92(TM) system (copyright 1992, Gaussian, Inc.),
 the Gaussian 90(TM) system (copyright 1990, Gaussian, Inc.),
 the Gaussian 88(TM) system (copyright 1988, Gaussian, Inc.),
 the Gaussian 86(TM) system (copyright 1986, Carnegie Mellon
 University), and the Gaussian 82(TM) system (copyright 1983,
 Carnegie Mellon University). Gaussian is a federally registered
 trademark of Gaussian, Inc.
  
 This software contains proprietary and confidential information,
 including trade secrets, belonging to Gaussian, Inc.
  
 This software is provided under written license and may be
 used, copied, transmitted, or stored only in accord with that
 written license.
  
 The following legend is applicable only to US Government
 contracts under FAR:
  
                    RESTRICTED RIGHTS LEGEND
  
 Use, reproduction and disclosure by the US Government is
 subject to restrictions as set forth in subparagraphs (a)
 and (c) of the Commercial Computer Software - Restricted
 Rights clause in FAR 52.227-19.
  
 Gaussian, Inc.
 340 Quinnipiac St., Bldg. 40, Wallingford CT 06492
  
  
 ---------------------------------------------------------------
 Warning -- This program may not be used in any manner that
 competes with the business of Gaussian, Inc. or will provide
 assistance to any competitor of Gaussian, Inc.  The licensee
 of this program is prohibited from giving any competitor of
 Gaussian, Inc. access to this program.  By using this program,
 the user acknowledges that Gaussian, Inc. is engaged in the
 business of creating and licensing software in the field of
 computational chemistry and represents and warrants to the
 licensee that it is not a competitor of Gaussian, Inc. and that
 it will not use this program in any manner prohibited above.
 ---------------------------------------------------------------
  

 Cite this work as:
 Gaussian 16, Revision A.03,
 M. J. Frisch, G. W. Trucks, H. B. Schlegel, G. E. Scuseria, 
 M. A. Robb, J. R. Cheeseman, G. Scalmani, V. Barone, 
 G. A. Petersson, H. Nakatsuji, X. Li, M. Caricato, A. V. Marenich, 
 J. Bloino, B. G. Janesko, R. Gomperts, B. Mennucci, H. P. Hratchian, 
 J. V. Ortiz, A. F. Izmaylov, J. L. Sonnenberg, D. Williams-Young, 
 F. Ding, F. Lipparini, F. Egidi, J. Goings, B. Peng, A. Petrone, 
 T. Henderson, D. Ranasinghe, V. G. Zakrzewski, J. Gao, N. Rega, 
 G. Zheng, W. Liang, M. Hada, M. Ehara, K. Toyota, R. Fukuda, 
 J. Hasegawa, M. Ishida, T. Nakajima, Y. Honda, O. Kitao, H. Nakai, 
 T. Vreven, K. Throssell, J. A. Montgomery, Jr., J. E. Peralta, 
 F. Ogliaro, M. J. Bearpark, J. J. Heyd, E. N. Brothers, K. N. Kudin, 
 V. N. Staroverov, T. A. Keith, R. Kobayashi, J. Normand, 
 K. Raghavachari, A. P. Rendell, J. C. Burant, S. S. Iyengar, 
 J. Tomasi, M. Cossi, J. M. Millam, M. Klene, C. Adamo, R. Cammi, 
 J. W. Ochterski, R. L. Martin, K. Morokuma, O. Farkas, 
 J. B. Foresman, and D. J. Fox, Gaussian, Inc., Wallingford CT, 2016.
 
 ******************************************
 Gaussian 16:  ES64L-G16RevA.03 25-Dec-2016
                25-Oct-2023 
 ******************************************
 %chk=TMPDAradCatEPRa.chk
 %nproc=36
 Will use up to   36 processors via shared memory.
 ----------------------------------------------------------------------
 #p pbe1pbe/epr-II scrf(cpcm,solvent=dmso) scf(maxcycle=512) integral(g
 rid=ultrafine,noxctest) gfinput iop(6/7=3) iop(6/82=1) iop(3/32=2) iop
 (5/13=1) output(SpinRotation) pop=nbo
 ----------------------------------------------------------------------
 1/38=1,172=1/1;
 2/12=2,17=6,18=5,40=1/2;
 3/5=21,11=2,24=10,25=1,30=1,32=2,47=8,70=2101,72=21,74=-13,75=-5/1,2,3,8;
 4//1;
 5/5=2,7=512,13=1,38=5,53=21/2;
 8/6=1,10=90,11=11/1;
 10/13=100,45=16/2;
 6/7=3,8=2,9=2,10=2,28=1,40=1,64=1,82=1/1,7;
 99/9=1,10=1024/99;
 Leave Link    1 at Wed Oct 25 09:53:47 2023, MaxMem=           0 cpu:               0.9 elap:               0.0
 (Enter /opt/uochb/soft/gaussian/gaussian16_a03/arch/amd64-pgi_12.10-acml/g16/l101.exe)
 ---------------------------------------------
 EPR params. calculation of TMPDA^{.+} in DMSO
 ---------------------------------------------
 Symbolic Z-matrix:
 Charge =  1 Multiplicity = 2
 C                    -1.74549   1.0616   -0.28153 
 C                    -1.21955  -0.16278   0.04549 
 C                    -2.04728  -1.29166   0.34501 
 C                    -3.45876  -1.06159   0.28157 
 C                    -3.9847    0.16278  -0.04547 
 C                    -3.15697   1.29167  -0.34499 
 N                    -3.67831   2.50534  -0.66917 
 N                    -1.52594  -2.50535   0.66917 
 C                    -2.87325   3.68757  -0.98259 
 C                    -5.11281   2.78844  -0.74716 
 C                    -2.33101  -3.68739   0.98324 
 C                    -0.09144  -2.78862   0.74646 
 H                    -1.04515   1.8569   -0.49239 
 H                    -0.14243  -0.24459   0.06899 
 H                    -4.1591   -1.85691   0.49237 
 H                    -5.06182   0.24462  -0.06887 
 H                    -1.80851   3.49217  -0.9279 
 H                    -3.11683   4.02912  -1.99375 
 H                    -3.12093   4.48697  -0.27686 
 H                    -5.72102   1.92103  -0.518 
 H                    -5.35922   3.58755  -0.04065 
 H                    -5.35581   3.13138  -1.75799 
 H                    -3.39575  -3.4915    0.93042 
 H                    -2.08481  -4.4866    0.27677 
 H                    -2.08594  -4.02949   1.99386 
 H                     0.51677  -1.92173   0.51538 
 H                     0.15235  -3.13007   1.75762 
 H                     0.15418  -3.58888   0.04098 
 
 ITRead=  0  0  0  0  0  0  0  0  0  0  0  0  0  0  0  0  0  0  0  0
 ITRead=  0  0  0  0  0  0  0  0
 MicOpt= -1 -1 -1 -1 -1 -1 -1 -1 -1 -1 -1 -1 -1 -1 -1 -1 -1 -1 -1 -1
 MicOpt= -1 -1 -1 -1 -1 -1 -1 -1
 NAtoms=     28 NQM=       28 NQMF=       0 NMMI=      0 NMMIF=      0
                NMic=       0 NMicF=      0.
                    Isotopes and Nuclear Properties:
 (Nuclear quadrupole moments (NQMom) in fm**2, nuclear magnetic moments (NMagM)
  in nuclear magnetons)

  Atom         1           2           3           4           5           6           7           8           9          10
 IAtWgt=          12          12          12          12          12          12          14          14          12          12
 AtmWgt=  12.0000000  12.0000000  12.0000000  12.0000000  12.0000000  12.0000000  14.0030740  14.0030740  12.0000000  12.0000000
 NucSpn=           0           0           0           0           0           0           2           2           0           0
 AtZEff=   0.0000000   0.0000000   0.0000000   0.0000000   0.0000000   0.0000000   0.0000000   0.0000000   0.0000000   0.0000000
 NQMom=    0.0000000   0.0000000   0.0000000   0.0000000   0.0000000   0.0000000   2.0440000   2.0440000   0.0000000   0.0000000
 NMagM=    0.0000000   0.0000000   0.0000000   0.0000000   0.0000000   0.0000000   0.4037610   0.4037610   0.0000000   0.0000000
 AtZNuc=   6.0000000   6.0000000   6.0000000   6.0000000   6.0000000   6.0000000   7.0000000   7.0000000   6.0000000   6.0000000

  Atom        11          12          13          14          15          16          17          18          19          20
 IAtWgt=          12          12           1           1           1           1           1           1           1           1
 AtmWgt=  12.0000000  12.0000000   1.0078250   1.0078250   1.0078250   1.0078250   1.0078250   1.0078250   1.0078250   1.0078250
 NucSpn=           0           0           1           1           1           1           1           1           1           1
 AtZEff=   0.0000000   0.0000000   0.0000000   0.0000000   0.0000000   0.0000000   0.0000000   0.0000000   0.0000000   0.0000000
 NQMom=    0.0000000   0.0000000   0.0000000   0.0000000   0.0000000   0.0000000   0.0000000   0.0000000   0.0000000   0.0000000
 NMagM=    0.0000000   0.0000000   2.7928460   2.7928460   2.7928460   2.7928460   2.7928460   2.7928460   2.7928460   2.7928460
 AtZNuc=   6.0000000   6.0000000   1.0000000   1.0000000   1.0000000   1.0000000   1.0000000   1.0000000   1.0000000   1.0000000

  Atom        21          22          23          24          25          26          27          28
 IAtWgt=           1           1           1           1           1           1           1           1
 AtmWgt=   1.0078250   1.0078250   1.0078250   1.0078250   1.0078250   1.0078250   1.0078250   1.0078250
 NucSpn=           1           1           1           1           1           1           1           1
 AtZEff=   0.0000000   0.0000000   0.0000000   0.0000000   0.0000000   0.0000000   0.0000000   0.0000000
 NQMom=    0.0000000   0.0000000   0.0000000   0.0000000   0.0000000   0.0000000   0.0000000   0.0000000
 NMagM=    2.7928460   2.7928460   2.7928460   2.7928460   2.7928460   2.7928460   2.7928460   2.7928460
 AtZNuc=   1.0000000   1.0000000   1.0000000   1.0000000   1.0000000   1.0000000   1.0000000   1.0000000
 Leave Link  101 at Wed Oct 25 09:53:47 2023, MaxMem=   104857600 cpu:               1.4 elap:               0.1
 (Enter /opt/uochb/soft/gaussian/gaussian16_a03/arch/amd64-pgi_12.10-acml/g16/l202.exe)
                          Input orientation:                          
 ---------------------------------------------------------------------
 Center     Atomic      Atomic             Coordinates (Angstroms)
 Number     Number       Type             X           Y           Z
 ---------------------------------------------------------------------
      1          6           0       -1.745493    1.061600   -0.281526
      2          6           0       -1.219554   -0.162775    0.045490
      3          6           0       -2.047281   -1.291663    0.345007
      4          6           0       -3.458759   -1.061589    0.281566
      5          6           0       -3.984699    0.162780   -0.045470
      6          6           0       -3.156972    1.291667   -0.344993
      7          7           0       -3.678314    2.505343   -0.669174
      8          7           0       -1.525939   -2.505345    0.669166
      9          6           0       -2.873246    3.687565   -0.982585
     10          6           0       -5.112813    2.788437   -0.747158
     11          6           0       -2.331008   -3.687390    0.983243
     12          6           0       -0.091438   -2.788621    0.746464
     13          1           0       -1.045152    1.856898   -0.492394
     14          1           0       -0.142431   -0.244593    0.068986
     15          1           0       -4.159100   -1.856905    0.492367
     16          1           0       -5.061822    0.244624   -0.068869
     17          1           0       -1.808509    3.492168   -0.927900
     18          1           0       -3.116829    4.029117   -1.993753
     19          1           0       -3.120929    4.486974   -0.276863
     20          1           0       -5.721022    1.921026   -0.517999
     21          1           0       -5.359222    3.587548   -0.040648
     22          1           0       -5.355811    3.131385   -1.757990
     23          1           0       -3.395747   -3.491495    0.930424
     24          1           0       -2.084805   -4.486595    0.276768
     25          1           0       -2.085942   -4.029492    1.993864
     26          1           0        0.516774   -1.921725    0.515375
     27          1           0        0.152353   -3.130066    1.757619
     28          1           0        0.154175   -3.588877    0.040980
 ---------------------------------------------------------------------
                    Distance matrix (angstroms):
                    1          2          3          4          5
     1  C    0.000000
     2  C    1.372095   0.000000
     3  C    2.453868   1.431513   0.000000
     4  C    2.785729   2.424384   1.431513   0.000000
     5  C    2.424385   2.785729   2.453867   1.372095   0.000000
     6  C    1.431514   2.453868   2.895014   2.453867   1.431514
     7  N    2.443453   3.697986   4.255125   3.697988   2.443457
     8  N    3.697988   2.443456   1.360110   2.443452   3.697985
     9  C    2.942618   4.314714   5.218949   4.949279   3.812823
    10  C    3.812824   4.949284   5.218958   4.314727   2.942632
    11  C    4.949280   3.812823   2.495467   2.942619   4.314714
    12  C    4.314726   2.942631   2.495470   3.812823   4.949284
    13  H    1.080482   2.097335   3.408657   3.865499   3.422092
    14  H    2.097333   1.080481   2.191118   3.422091   3.865498
    15  H    3.865499   3.422091   2.191117   1.080482   2.097334
    16  H    3.422092   3.865498   3.408655   2.097334   1.080481
    17  H    2.515836   3.827919   4.956041   4.992278   4.074225
    18  H    3.690317   5.032904   5.909690   5.586527   4.415605
    19  H    3.691210   5.033816   5.910337   5.586817   4.415687
    20  H    4.074232   4.992290   4.956059   3.827941   2.515856
    21  H    4.415594   5.586519   5.909686   5.032897   3.690308
    22  H    4.415694   5.586828   5.910357   5.033848   3.691245
    23  H    4.992278   4.074224   2.645815   2.515836   3.827918
    24  H    5.586528   4.415605   3.195881   3.690317   5.032904
    25  H    5.586817   4.415687   3.196237   3.691211   5.033816
    26  H    3.827941   2.515856   2.645823   4.074232   4.992291
    27  H    5.032891   3.690302   3.195870   4.415593   5.586516
    28  H    5.033854   3.691250   3.196253   4.415695   5.586831
                    6          7          8          9         10
     6  C    0.000000
     7  N    1.360110   0.000000
     8  N    4.255125   5.615235   0.000000
     9  C    2.495466   1.464244   6.549477   0.000000
    10  C    2.495470   1.464244   6.549486   2.424772   0.000000
    11  C    5.218950   6.549478   1.464244   7.651697   7.257345
    12  C    5.218958   6.549486   1.464245   7.257345   7.651712
    13  H    2.191118   2.717586   4.539773   2.633165   4.180734
    14  H    3.408655   4.539768   2.717593   4.901532   5.879631
    15  H    3.408656   4.539773   2.717585   5.879630   4.901550
    16  H    2.191118   2.717593   4.539768   4.180740   2.633185
    17  H    2.645815   2.130008   6.212940   1.083898   3.383243
    18  H    3.195881   2.095629   7.233344   1.094738   2.660308
    19  H    3.196236   2.095578   7.234051   1.094735   2.659663
    20  H    2.645822   2.130009   6.212958   3.383242   1.083898
    21  H    3.195872   2.095630   7.233342   2.660324   1.094738
    22  H    3.196250   2.095577   7.234067   2.659646   1.094734
    23  H    4.956041   6.212940   2.130007   7.447920   6.723105
    24  H    5.909690   7.233345   2.095629   8.308099   7.946279
    25  H    5.910338   7.234051   2.095579   8.308554   7.947283
    26  H    4.956060   6.212958   2.130009   6.723113   7.447944
    27  H    5.909681   7.233337   2.095631   7.946261   8.308102
    28  H    5.910362   7.234073   2.095577   7.947300   8.308577
                   11         12         13         14         15
    11  C    0.000000
    12  C    2.424773   0.000000
    13  H    5.879631   4.901549   0.000000
    14  H    4.180740   2.633183   2.355062   0.000000
    15  H    2.633164   4.180734   4.945580   4.348843   0.000000
    16  H    4.901532   5.879631   4.348843   4.945578   2.355062
    17  H    7.447921   6.723105   1.856472   4.211055   6.012904
    18  H    8.308098   7.946278   3.356257   5.600583   6.473977
    19  H    8.308554   7.947282   3.357470   5.601677   6.474127
    20  H    6.723113   7.447943   4.676380   6.012914   4.211081
    21  H    7.946267   8.308106   4.670163   6.473966   5.600577
    22  H    7.947294   8.308573   4.669886   6.474133   5.601719
    23  H    1.083898   3.383243   6.012904   4.676378   1.856471
    24  H    1.094738   2.660309   6.473978   4.670179   3.356256
    25  H    1.094736   2.659664   6.474126   4.669888   3.357471
    26  H    3.383243   1.083897   4.211081   1.856498   4.676380
    27  H    2.660329   1.094739   5.600570   3.356238   4.670164
    28  H    2.659643   1.094734   5.601726   3.357528   4.669884
                   16         17         18         19         20
    16  H    0.000000
    17  H    4.676379   0.000000
    18  H    4.670178   1.770892   0.000000
    19  H    4.669889   1.770857   1.776896   0.000000
    20  H    1.856498   4.236067   3.661109   3.660972   0.000000
    21  H    3.356246   3.661130   3.006315   2.423782   1.770892
    22  H    3.357521   3.660951   2.423747   3.004340   1.770855
    23  H    4.211054   7.398935   8.073922   8.073973   6.066318
    24  H    5.600583   8.073922   8.873426   9.050138   7.410218
    25  H    5.601678   8.073973   9.050138   8.874547   7.411608
    26  H    6.012915   6.066319   7.410217   7.411609   7.398966
    27  H    6.473964   7.410194   8.718615   8.536556   8.073940
    28  H    6.474135   7.411616   8.536594   8.720476   8.073997
                   21         22         23         24         25
    21  H    0.000000
    22  H    1.776896   0.000000
    23  H    7.410200   7.411610   0.000000
    24  H    8.718621   8.536588   1.770892   0.000000
    25  H    8.536563   8.720471   1.770857   1.776897   0.000000
    26  H    8.073944   8.073993   4.236067   3.661107   3.660976
    27  H    8.873419   9.050146   3.661133   3.006321   2.423787
    28  H    9.050154   8.874579   3.660948   2.423742   3.004334
                   26         27         28
    26  H    0.000000
    27  H    1.770893   0.000000
    28  H    1.770854   1.776896   0.000000
 Stoichiometry    C10H16N2(1+,2)
 Framework group  C1[X(C10H16N2)]
 Deg. of freedom    78
 Full point group                 C1      NOp   1
 Largest Abelian subgroup         C1      NOp   1
 Largest concise Abelian subgroup C1      NOp   1
                         Standard orientation:                         
 ---------------------------------------------------------------------
 Center     Atomic      Atomic             Coordinates (Angstroms)
 Number     Number       Type             X           Y           Z
 ---------------------------------------------------------------------
      1          6           0        0.686050    1.212191   -0.000020
      2          6           0       -0.686046    1.212193   -0.000009
      3          6           0       -1.447507    0.000002   -0.000005
      4          6           0       -0.686050   -1.212191   -0.000018
      5          6           0        0.686045   -1.212194   -0.000008
      6          6           0        1.447507   -0.000003   -0.000006
      7          7           0        2.807618   -0.000001    0.000005
      8          7           0       -2.807618    0.000001    0.000007
      9          6           0        3.628668    1.212387   -0.000338
     10          6           0        3.628677   -1.212384    0.000360
     11          6           0       -3.628668   -1.212388   -0.000340
     12          6           0       -3.628677    1.212385    0.000361
     13          1           0        1.177535    2.174420    0.000014
     14          1           0       -1.177527    2.174423   -0.000061
     15          1           0       -1.177536   -2.174419    0.000017
     16          1           0        1.177526   -2.174424   -0.000057
     17          1           0        3.033150    2.118032   -0.001303
     18          1           0        4.267818    1.212495    0.888447
     19          1           0        4.268748    1.211277   -0.888449
     20          1           0        3.033168   -2.118034    0.001354
     21          1           0        4.267815   -1.212505   -0.888434
     22          1           0        4.268769   -1.211251    0.888462
     23          1           0       -3.033150   -2.118032   -0.001306
     24          1           0       -4.267819   -1.212496    0.888445
     25          1           0       -4.268748   -1.211277   -0.888452
     26          1           0       -3.033168    2.118034    0.001365
     27          1           0       -4.267808    1.212510   -0.888438
     28          1           0       -4.268776    1.211246    0.888457
 ---------------------------------------------------------------------
 Rotational constants (GHZ):           2.5727364           0.4505874           0.3871721
 Leave Link  202 at Wed Oct 25 09:53:47 2023, MaxMem=   104857600 cpu:               0.3 elap:               0.0
 (Enter /opt/uochb/soft/gaussian/gaussian16_a03/arch/amd64-pgi_12.10-acml/g16/l301.exe)
 Standard basis: EPR-II (5D, 7F)
 Ernie: Thresh=  0.10000D-02 Tol=  0.10000D-05 Strict=F.
 AO basis set in the form of general basis input (Overlap normalization):
      1 0
 S   5 1.00       0.000000000000
      0.4232610000D+04  0.2341340347D-02
      0.6348820000D+03  0.1792642794D-01
      0.1460970000D+03  0.8701962391D-01
      0.4249740000D+02  0.2967017109D+00
      0.1418920000D+02  0.6883875263D+00
 S   1 1.00       0.000000000000
      0.1966600000D+01  0.1000000000D+01
 S   1 1.00       0.000000000000
      0.5147700000D+01  0.1000000000D+01
 S   1 1.00       0.000000000000
      0.4962000000D+00  0.1000000000D+01
 S   1 1.00       0.000000000000
      0.1533000000D+00  0.1000000000D+01
 S   1 1.00       0.000000000000
      0.4790000000D-01  0.1000000000D+01
 P   4 1.00       0.000000000000
      0.1815570000D+02  0.1853400257D-01
      0.3986400000D+01  0.1154420160D+00
      0.1142900000D+01  0.3862060535D+00
      0.3594000000D+00  0.6400890887D+00
 P   1 1.00       0.000000000000
      0.1146000000D+00  0.1000000000D+01
 D   1 1.00       0.000000000000
      0.5500000000D+00  0.1000000000D+01
 ****
      2 0
 S   5 1.00       0.000000000000
      0.4232610000D+04  0.2341340347D-02
      0.6348820000D+03  0.1792642794D-01
      0.1460970000D+03  0.8701962391D-01
      0.4249740000D+02  0.2967017109D+00
      0.1418920000D+02  0.6883875263D+00
 S   1 1.00       0.000000000000
      0.1966600000D+01  0.1000000000D+01
 S   1 1.00       0.000000000000
      0.5147700000D+01  0.1000000000D+01
 S   1 1.00       0.000000000000
      0.4962000000D+00  0.1000000000D+01
 S   1 1.00       0.000000000000
      0.1533000000D+00  0.1000000000D+01
 S   1 1.00       0.000000000000
      0.4790000000D-01  0.1000000000D+01
 P   4 1.00       0.000000000000
      0.1815570000D+02  0.1853400257D-01
      0.3986400000D+01  0.1154420160D+00
      0.1142900000D+01  0.3862060535D+00
      0.3594000000D+00  0.6400890887D+00
 P   1 1.00       0.000000000000
      0.1146000000D+00  0.1000000000D+01
 D   1 1.00       0.000000000000
      0.5500000000D+00  0.1000000000D+01
 ****
      3 0
 S   5 1.00       0.000000000000
      0.4232610000D+04  0.2341340347D-02
      0.6348820000D+03  0.1792642794D-01
      0.1460970000D+03  0.8701962391D-01
      0.4249740000D+02  0.2967017109D+00
      0.1418920000D+02  0.6883875263D+00
 S   1 1.00       0.000000000000
      0.1966600000D+01  0.1000000000D+01
 S   1 1.00       0.000000000000
      0.5147700000D+01  0.1000000000D+01
 S   1 1.00       0.000000000000
      0.4962000000D+00  0.1000000000D+01
 S   1 1.00       0.000000000000
      0.1533000000D+00  0.1000000000D+01
 S   1 1.00       0.000000000000
      0.4790000000D-01  0.1000000000D+01
 P   4 1.00       0.000000000000
      0.1815570000D+02  0.1853400257D-01
      0.3986400000D+01  0.1154420160D+00
      0.1142900000D+01  0.3862060535D+00
      0.3594000000D+00  0.6400890887D+00
 P   1 1.00       0.000000000000
      0.1146000000D+00  0.1000000000D+01
 D   1 1.00       0.000000000000
      0.5500000000D+00  0.1000000000D+01
 ****
      4 0
 S   5 1.00       0.000000000000
      0.4232610000D+04  0.2341340347D-02
      0.6348820000D+03  0.1792642794D-01
      0.1460970000D+03  0.8701962391D-01
      0.4249740000D+02  0.2967017109D+00
      0.1418920000D+02  0.6883875263D+00
 S   1 1.00       0.000000000000
      0.1966600000D+01  0.1000000000D+01
 S   1 1.00       0.000000000000
      0.5147700000D+01  0.1000000000D+01
 S   1 1.00       0.000000000000
      0.4962000000D+00  0.1000000000D+01
 S   1 1.00       0.000000000000
      0.1533000000D+00  0.1000000000D+01
 S   1 1.00       0.000000000000
      0.4790000000D-01  0.1000000000D+01
 P   4 1.00       0.000000000000
      0.1815570000D+02  0.1853400257D-01
      0.3986400000D+01  0.1154420160D+00
      0.1142900000D+01  0.3862060535D+00
      0.3594000000D+00  0.6400890887D+00
 P   1 1.00       0.000000000000
      0.1146000000D+00  0.1000000000D+01
 D   1 1.00       0.000000000000
      0.5500000000D+00  0.1000000000D+01
 ****
      5 0
 S   5 1.00       0.000000000000
      0.4232610000D+04  0.2341340347D-02
      0.6348820000D+03  0.1792642794D-01
      0.1460970000D+03  0.8701962391D-01
      0.4249740000D+02  0.2967017109D+00
      0.1418920000D+02  0.6883875263D+00
 S   1 1.00       0.000000000000
      0.1966600000D+01  0.1000000000D+01
 S   1 1.00       0.000000000000
      0.5147700000D+01  0.1000000000D+01
 S   1 1.00       0.000000000000
      0.4962000000D+00  0.1000000000D+01
 S   1 1.00       0.000000000000
      0.1533000000D+00  0.1000000000D+01
 S   1 1.00       0.000000000000
      0.4790000000D-01  0.1000000000D+01
 P   4 1.00       0.000000000000
      0.1815570000D+02  0.1853400257D-01
      0.3986400000D+01  0.1154420160D+00
      0.1142900000D+01  0.3862060535D+00
      0.3594000000D+00  0.6400890887D+00
 P   1 1.00       0.000000000000
      0.1146000000D+00  0.1000000000D+01
 D   1 1.00       0.000000000000
      0.5500000000D+00  0.1000000000D+01
 ****
      6 0
 S   5 1.00       0.000000000000
      0.4232610000D+04  0.2341340347D-02
      0.6348820000D+03  0.1792642794D-01
      0.1460970000D+03  0.8701962391D-01
      0.4249740000D+02  0.2967017109D+00
      0.1418920000D+02  0.6883875263D+00
 S   1 1.00       0.000000000000
      0.1966600000D+01  0.1000000000D+01
 S   1 1.00       0.000000000000
      0.5147700000D+01  0.1000000000D+01
 S   1 1.00       0.000000000000
      0.4962000000D+00  0.1000000000D+01
 S   1 1.00       0.000000000000
      0.1533000000D+00  0.1000000000D+01
 S   1 1.00       0.000000000000
      0.4790000000D-01  0.1000000000D+01
 P   4 1.00       0.000000000000
      0.1815570000D+02  0.1853400257D-01
      0.3986400000D+01  0.1154420160D+00
      0.1142900000D+01  0.3862060535D+00
      0.3594000000D+00  0.6400890887D+00
 P   1 1.00       0.000000000000
      0.1146000000D+00  0.1000000000D+01
 D   1 1.00       0.000000000000
      0.5500000000D+00  0.1000000000D+01
 ****
      7 0
 S   5 1.00       0.000000000000
      0.5909440000D+04  0.2312925218D-02
      0.8874510000D+03  0.1767010234D-01
      0.2047900000D+03  0.8574558542D-01
      0.5983760000D+02  0.2924211501D+00
      0.1999810000D+02  0.6931573730D+00
 S   1 1.00       0.000000000000
      0.2686000000D+01  0.1000000000D+01
 S   1 1.00       0.000000000000
      0.7192700000D+01  0.1000000000D+01
 S   1 1.00       0.000000000000
      0.7000000000D+00  0.1000000000D+01
 S   1 1.00       0.000000000000
      0.2133000000D+00  0.1000000000D+01
 S   1 1.00       0.000000000000
      0.6670000000D-01  0.1000000000D+01
 P   4 1.00       0.000000000000
      0.2678600000D+02  0.1825699251D-01
      0.5956400000D+01  0.1164069523D+00
      0.1707400000D+01  0.3901108400D+00
      0.5314000000D+00  0.6372207387D+00
 P   1 1.00       0.000000000000
      0.1654000000D+00  0.1000000000D+01
 D   1 1.00       0.000000000000
      0.8170000000D+00  0.1000000000D+01
 ****
      8 0
 S   5 1.00       0.000000000000
      0.5909440000D+04  0.2312925218D-02
      0.8874510000D+03  0.1767010234D-01
      0.2047900000D+03  0.8574558542D-01
      0.5983760000D+02  0.2924211501D+00
      0.1999810000D+02  0.6931573730D+00
 S   1 1.00       0.000000000000
      0.2686000000D+01  0.1000000000D+01
 S   1 1.00       0.000000000000
      0.7192700000D+01  0.1000000000D+01
 S   1 1.00       0.000000000000
      0.7000000000D+00  0.1000000000D+01
 S   1 1.00       0.000000000000
      0.2133000000D+00  0.1000000000D+01
 S   1 1.00       0.000000000000
      0.6670000000D-01  0.1000000000D+01
 P   4 1.00       0.000000000000
      0.2678600000D+02  0.1825699251D-01
      0.5956400000D+01  0.1164069523D+00
      0.1707400000D+01  0.3901108400D+00
      0.5314000000D+00  0.6372207387D+00
 P   1 1.00       0.000000000000
      0.1654000000D+00  0.1000000000D+01
 D   1 1.00       0.000000000000
      0.8170000000D+00  0.1000000000D+01
 ****
      9 0
 S   5 1.00       0.000000000000
      0.4232610000D+04  0.2341340347D-02
      0.6348820000D+03  0.1792642794D-01
      0.1460970000D+03  0.8701962391D-01
      0.4249740000D+02  0.2967017109D+00
      0.1418920000D+02  0.6883875263D+00
 S   1 1.00       0.000000000000
      0.1966600000D+01  0.1000000000D+01
 S   1 1.00       0.000000000000
      0.5147700000D+01  0.1000000000D+01
 S   1 1.00       0.000000000000
      0.4962000000D+00  0.1000000000D+01
 S   1 1.00       0.000000000000
      0.1533000000D+00  0.1000000000D+01
 S   1 1.00       0.000000000000
      0.4790000000D-01  0.1000000000D+01
 P   4 1.00       0.000000000000
      0.1815570000D+02  0.1853400257D-01
      0.3986400000D+01  0.1154420160D+00
      0.1142900000D+01  0.3862060535D+00
      0.3594000000D+00  0.6400890887D+00
 P   1 1.00       0.000000000000
      0.1146000000D+00  0.1000000000D+01
 D   1 1.00       0.000000000000
      0.5500000000D+00  0.1000000000D+01
 ****
     10 0
 S   5 1.00       0.000000000000
      0.4232610000D+04  0.2341340347D-02
      0.6348820000D+03  0.1792642794D-01
      0.1460970000D+03  0.8701962391D-01
      0.4249740000D+02  0.2967017109D+00
      0.1418920000D+02  0.6883875263D+00
 S   1 1.00       0.000000000000
      0.1966600000D+01  0.1000000000D+01
 S   1 1.00       0.000000000000
      0.5147700000D+01  0.1000000000D+01
 S   1 1.00       0.000000000000
      0.4962000000D+00  0.1000000000D+01
 S   1 1.00       0.000000000000
      0.1533000000D+00  0.1000000000D+01
 S   1 1.00       0.000000000000
      0.4790000000D-01  0.1000000000D+01
 P   4 1.00       0.000000000000
      0.1815570000D+02  0.1853400257D-01
      0.3986400000D+01  0.1154420160D+00
      0.1142900000D+01  0.3862060535D+00
      0.3594000000D+00  0.6400890887D+00
 P   1 1.00       0.000000000000
      0.1146000000D+00  0.1000000000D+01
 D   1 1.00       0.000000000000
      0.5500000000D+00  0.1000000000D+01
 ****
     11 0
 S   5 1.00       0.000000000000
      0.4232610000D+04  0.2341340347D-02
      0.6348820000D+03  0.1792642794D-01
      0.1460970000D+03  0.8701962391D-01
      0.4249740000D+02  0.2967017109D+00
      0.1418920000D+02  0.6883875263D+00
 S   1 1.00       0.000000000000
      0.1966600000D+01  0.1000000000D+01
 S   1 1.00       0.000000000000
      0.5147700000D+01  0.1000000000D+01
 S   1 1.00       0.000000000000
      0.4962000000D+00  0.1000000000D+01
 S   1 1.00       0.000000000000
      0.1533000000D+00  0.1000000000D+01
 S   1 1.00       0.000000000000
      0.4790000000D-01  0.1000000000D+01
 P   4 1.00       0.000000000000
      0.1815570000D+02  0.1853400257D-01
      0.3986400000D+01  0.1154420160D+00
      0.1142900000D+01  0.3862060535D+00
      0.3594000000D+00  0.6400890887D+00
 P   1 1.00       0.000000000000
      0.1146000000D+00  0.1000000000D+01
 D   1 1.00       0.000000000000
      0.5500000000D+00  0.1000000000D+01
 ****
     12 0
 S   5 1.00       0.000000000000
      0.4232610000D+04  0.2341340347D-02
      0.6348820000D+03  0.1792642794D-01
      0.1460970000D+03  0.8701962391D-01
      0.4249740000D+02  0.2967017109D+00
      0.1418920000D+02  0.6883875263D+00
 S   1 1.00       0.000000000000
      0.1966600000D+01  0.1000000000D+01
 S   1 1.00       0.000000000000
      0.5147700000D+01  0.1000000000D+01
 S   1 1.00       0.000000000000
      0.4962000000D+00  0.1000000000D+01
 S   1 1.00       0.000000000000
      0.1533000000D+00  0.1000000000D+01
 S   1 1.00       0.000000000000
      0.4790000000D-01  0.1000000000D+01
 P   4 1.00       0.000000000000
      0.1815570000D+02  0.1853400257D-01
      0.3986400000D+01  0.1154420160D+00
      0.1142900000D+01  0.3862060535D+00
      0.3594000000D+00  0.6400890887D+00
 P   1 1.00       0.000000000000
      0.1146000000D+00  0.1000000000D+01
 D   1 1.00       0.000000000000
      0.5500000000D+00  0.1000000000D+01
 ****
     13 0
 S   3 1.00       0.000000000000
      0.7676985600D+03  0.9891758927D-02
      0.1279497600D+03  0.8054717983D-01
      0.1924060000D+02  0.9510219654D+00
 S   1 1.00       0.000000000000
      0.2899200000D+01  0.1000000000D+01
 S   1 1.00       0.000000000000
      0.6534000000D+00  0.1000000000D+01
 S   1 1.00       0.000000000000
      0.1776000000D+00  0.1000000000D+01
 P   1 1.00       0.000000000000
      0.7270000000D+00  0.1000000000D+01
 ****
     14 0
 S   3 1.00       0.000000000000
      0.7676985600D+03  0.9891758927D-02
      0.1279497600D+03  0.8054717983D-01
      0.1924060000D+02  0.9510219654D+00
 S   1 1.00       0.000000000000
      0.2899200000D+01  0.1000000000D+01
 S   1 1.00       0.000000000000
      0.6534000000D+00  0.1000000000D+01
 S   1 1.00       0.000000000000
      0.1776000000D+00  0.1000000000D+01
 P   1 1.00       0.000000000000
      0.7270000000D+00  0.1000000000D+01
 ****
     15 0
 S   3 1.00       0.000000000000
      0.7676985600D+03  0.9891758927D-02
      0.1279497600D+03  0.8054717983D-01
      0.1924060000D+02  0.9510219654D+00
 S   1 1.00       0.000000000000
      0.2899200000D+01  0.1000000000D+01
 S   1 1.00       0.000000000000
      0.6534000000D+00  0.1000000000D+01
 S   1 1.00       0.000000000000
      0.1776000000D+00  0.1000000000D+01
 P   1 1.00       0.000000000000
      0.7270000000D+00  0.1000000000D+01
 ****
     16 0
 S   3 1.00       0.000000000000
      0.7676985600D+03  0.9891758927D-02
      0.1279497600D+03  0.8054717983D-01
      0.1924060000D+02  0.9510219654D+00
 S   1 1.00       0.000000000000
      0.2899200000D+01  0.1000000000D+01
 S   1 1.00       0.000000000000
      0.6534000000D+00  0.1000000000D+01
 S   1 1.00       0.000000000000
      0.1776000000D+00  0.1000000000D+01
 P   1 1.00       0.000000000000
      0.7270000000D+00  0.1000000000D+01
 ****
     17 0
 S   3 1.00       0.000000000000
      0.7676985600D+03  0.9891758927D-02
      0.1279497600D+03  0.8054717983D-01
      0.1924060000D+02  0.9510219654D+00
 S   1 1.00       0.000000000000
      0.2899200000D+01  0.1000000000D+01
 S   1 1.00       0.000000000000
      0.6534000000D+00  0.1000000000D+01
 S   1 1.00       0.000000000000
      0.1776000000D+00  0.1000000000D+01
 P   1 1.00       0.000000000000
      0.7270000000D+00  0.1000000000D+01
 ****
     18 0
 S   3 1.00       0.000000000000
      0.7676985600D+03  0.9891758927D-02
      0.1279497600D+03  0.8054717983D-01
      0.1924060000D+02  0.9510219654D+00
 S   1 1.00       0.000000000000
      0.2899200000D+01  0.1000000000D+01
 S   1 1.00       0.000000000000
      0.6534000000D+00  0.1000000000D+01
 S   1 1.00       0.000000000000
      0.1776000000D+00  0.1000000000D+01
 P   1 1.00       0.000000000000
      0.7270000000D+00  0.1000000000D+01
 ****
     19 0
 S   3 1.00       0.000000000000
      0.7676985600D+03  0.9891758927D-02
      0.1279497600D+03  0.8054717983D-01
      0.1924060000D+02  0.9510219654D+00
 S   1 1.00       0.000000000000
      0.2899200000D+01  0.1000000000D+01
 S   1 1.00       0.000000000000
      0.6534000000D+00  0.1000000000D+01
 S   1 1.00       0.000000000000
      0.1776000000D+00  0.1000000000D+01
 P   1 1.00       0.000000000000
      0.7270000000D+00  0.1000000000D+01
 ****
     20 0
 S   3 1.00       0.000000000000
      0.7676985600D+03  0.9891758927D-02
      0.1279497600D+03  0.8054717983D-01
      0.1924060000D+02  0.9510219654D+00
 S   1 1.00       0.000000000000
      0.2899200000D+01  0.1000000000D+01
 S   1 1.00       0.000000000000
      0.6534000000D+00  0.1000000000D+01
 S   1 1.00       0.000000000000
      0.1776000000D+00  0.1000000000D+01
 P   1 1.00       0.000000000000
      0.7270000000D+00  0.1000000000D+01
 ****
     21 0
 S   3 1.00       0.000000000000
      0.7676985600D+03  0.9891758927D-02
      0.1279497600D+03  0.8054717983D-01
      0.1924060000D+02  0.9510219654D+00
 S   1 1.00       0.000000000000
      0.2899200000D+01  0.1000000000D+01
 S   1 1.00       0.000000000000
      0.6534000000D+00  0.1000000000D+01
 S   1 1.00       0.000000000000
      0.1776000000D+00  0.1000000000D+01
 P   1 1.00       0.000000000000
      0.7270000000D+00  0.1000000000D+01
 ****
     22 0
 S   3 1.00       0.000000000000
      0.7676985600D+03  0.9891758927D-02
      0.1279497600D+03  0.8054717983D-01
      0.1924060000D+02  0.9510219654D+00
 S   1 1.00       0.000000000000
      0.2899200000D+01  0.1000000000D+01
 S   1 1.00       0.000000000000
      0.6534000000D+00  0.1000000000D+01
 S   1 1.00       0.000000000000
      0.1776000000D+00  0.1000000000D+01
 P   1 1.00       0.000000000000
      0.7270000000D+00  0.1000000000D+01
 ****
     23 0
 S   3 1.00       0.000000000000
      0.7676985600D+03  0.9891758927D-02
      0.1279497600D+03  0.8054717983D-01
      0.1924060000D+02  0.9510219654D+00
 S   1 1.00       0.000000000000
      0.2899200000D+01  0.1000000000D+01
 S   1 1.00       0.000000000000
      0.6534000000D+00  0.1000000000D+01
 S   1 1.00       0.000000000000
      0.1776000000D+00  0.1000000000D+01
 P   1 1.00       0.000000000000
      0.7270000000D+00  0.1000000000D+01
 ****
     24 0
 S   3 1.00       0.000000000000
      0.7676985600D+03  0.9891758927D-02
      0.1279497600D+03  0.8054717983D-01
      0.1924060000D+02  0.9510219654D+00
 S   1 1.00       0.000000000000
      0.2899200000D+01  0.1000000000D+01
 S   1 1.00       0.000000000000
      0.6534000000D+00  0.1000000000D+01
 S   1 1.00       0.000000000000
      0.1776000000D+00  0.1000000000D+01
 P   1 1.00       0.000000000000
      0.7270000000D+00  0.1000000000D+01
 ****
     25 0
 S   3 1.00       0.000000000000
      0.7676985600D+03  0.9891758927D-02
      0.1279497600D+03  0.8054717983D-01
      0.1924060000D+02  0.9510219654D+00
 S   1 1.00       0.000000000000
      0.2899200000D+01  0.1000000000D+01
 S   1 1.00       0.000000000000
      0.6534000000D+00  0.1000000000D+01
 S   1 1.00       0.000000000000
      0.1776000000D+00  0.1000000000D+01
 P   1 1.00       0.000000000000
      0.7270000000D+00  0.1000000000D+01
 ****
     26 0
 S   3 1.00       0.000000000000
      0.7676985600D+03  0.9891758927D-02
      0.1279497600D+03  0.8054717983D-01
      0.1924060000D+02  0.9510219654D+00
 S   1 1.00       0.000000000000
      0.2899200000D+01  0.1000000000D+01
 S   1 1.00       0.000000000000
      0.6534000000D+00  0.1000000000D+01
 S   1 1.00       0.000000000000
      0.1776000000D+00  0.1000000000D+01
 P   1 1.00       0.000000000000
      0.7270000000D+00  0.1000000000D+01
 ****
     27 0
 S   3 1.00       0.000000000000
      0.7676985600D+03  0.9891758927D-02
      0.1279497600D+03  0.8054717983D-01
      0.1924060000D+02  0.9510219654D+00
 S   1 1.00       0.000000000000
      0.2899200000D+01  0.1000000000D+01
 S   1 1.00       0.000000000000
      0.6534000000D+00  0.1000000000D+01
 S   1 1.00       0.000000000000
      0.1776000000D+00  0.1000000000D+01
 P   1 1.00       0.000000000000
      0.7270000000D+00  0.1000000000D+01
 ****
     28 0
 S   3 1.00       0.000000000000
      0.7676985600D+03  0.9891758927D-02
      0.1279497600D+03  0.8054717983D-01
      0.1924060000D+02  0.9510219654D+00
 S   1 1.00       0.000000000000
      0.2899200000D+01  0.1000000000D+01
 S   1 1.00       0.000000000000
      0.6534000000D+00  0.1000000000D+01
 S   1 1.00       0.000000000000
      0.1776000000D+00  0.1000000000D+01
 P   1 1.00       0.000000000000
      0.7270000000D+00  0.1000000000D+01
 ****

 There are   328 symmetry adapted cartesian basis functions of A   symmetry.
 There are   316 symmetry adapted basis functions of A   symmetry.
   316 basis functions,   516 primitive gaussians,   328 cartesian basis functions
    45 alpha electrons       44 beta electrons
       nuclear repulsion energy       693.5458479739 Hartrees.
 IExCor= 1009 DFT=T Ex+Corr=PBE1PBE ExCW=0 ScaHFX=  0.250000
 ScaDFX=  0.750000  0.750000  1.000000  1.000000 ScalE2=  1.000000  1.000000
 IRadAn=      5 IRanWt=     -1 IRanGd=            0 ICorTp=0 IEmpDi=  4
 NAtoms=   28 NActive=   28 NUniq=   28 SFac= 1.00D+00 NAtFMM=   60 NAOKFM=F Big=F
 Integral buffers will be    131072 words long.
 Raffenetti 2 integral format.
 Two-electron integral symmetry is turned on.
 ------------------------------------------------------------------------------
 Polarizable Continuum Model (PCM)
 =================================
 Model                : C-PCM.
 Atomic radii         : UFF (Universal Force Field).
 Polarization charges : Total charges.
 Charge compensation  : None.
 Solution method      : On-the-fly selection.
 Cavity type          : Scaled VdW (van der Waals Surface) (Alpha=1.100).
 Cavity algorithm     : GePol (No added spheres)
                        Default sphere list used, NSphG=   28.
                        Lebedev-Laikov grids with approx.  5.0 points / Ang**2.
                        Smoothing algorithm: York/Karplus (Gamma=1.0000).
                        Polarization charges: spherical gaussians, with
                                              point-specific exponents (IZeta= 3).
                        Self-potential: point-specific (ISelfS= 7).
                        Self-field    : sphere-specific E.n sum rule (ISelfD= 2).
 Solvent              : DiMethylSulfoxide, Eps=  46.826000 Eps(inf)=   2.007889
 ------------------------------------------------------------------------------
 GePol: Number of generator spheres                  =      28
 GePol: Total number of spheres                      =      28
 GePol: Number of exposed spheres                    =      28 (100.00%)
 GePol: Number of points                             =    1968
 GePol: Average weight of points                     =       0.13
 GePol: Minimum weight of points                     =   0.56D-06
 GePol: Maximum weight of points                     =    0.20577
 GePol: Number of points with low weight             =     108
 GePol: Fraction of low-weight points (<1% of avg)   =       5.49%
 GePol: Cavity surface area                          =    257.338 Ang**2
 GePol: Cavity volume                                =    267.679 Ang**3
 Leave Link  301 at Wed Oct 25 09:53:47 2023, MaxMem=   104857600 cpu:               1.5 elap:               0.1
 (Enter /opt/uochb/soft/gaussian/gaussian16_a03/arch/amd64-pgi_12.10-acml/g16/l302.exe)
 NPDir=0 NMtPBC=     1 NCelOv=     1 NCel=       1 NClECP=     1 NCelD=      1
         NCelK=      1 NCelE2=     1 NClLst=     1 CellRange=     0.0.
 One-electron integrals computed using PRISM.
 One-electron integral symmetry used in STVInt
 PrsmSu:  requested number of processors reduced to:  27 ShMem   1 Linda.
 NBasis=   316 RedAO= F EigKep=  0.00D+00  NBF=   316
 NBsUse=   316 1.00D-04 EigRej=  0.00D+00 NBFU=   316
 Precomputing XC quadrature grid using
 IXCGrd= 4 IRadAn=           5 IRanWt=          -1 IRanGd=           0 AccXCQ= 0.00D+00.
 Generated NRdTot=       0 NPtTot=           0 NUsed=           0 NTot=          32
 NSgBfM=   306   306   306   306   306 MxSgAt=    28 MxSgA2=    28.
 Leave Link  302 at Wed Oct 25 09:53:47 2023, MaxMem=   104857600 cpu:               4.7 elap:               0.2
 (Enter /opt/uochb/soft/gaussian/gaussian16_a03/arch/amd64-pgi_12.10-acml/g16/l303.exe)
 DipDrv:  MaxL=1.
 Leave Link  303 at Wed Oct 25 09:53:48 2023, MaxMem=   104857600 cpu:               1.0 elap:               0.1
 (Enter /opt/uochb/soft/gaussian/gaussian16_a03/arch/amd64-pgi_12.10-acml/g16/l308.exe)
 Leave Link  308 at Wed Oct 25 09:53:49 2023, MaxMem=   104857600 cpu:               1.6 elap:               0.6
 (Enter /opt/uochb/soft/gaussian/gaussian16_a03/arch/amd64-pgi_12.10-acml/g16/l401.exe)
 GSVD:  LWork=      -94656 too small for GESVD, short by      496292 words or      496292 for optimal perf.
 ExpMin= 4.79D-02 ExpMax= 5.91D+03 ExpMxC= 8.87D+02 IAcc=3 IRadAn=         5 AccDes= 0.00D+00
 Harris functional with IExCor= 1009 and IRadAn=       5 diagonalized for initial guess.
 HarFok:  IExCor= 1009 AccDes= 0.00D+00 IRadAn=         5 IDoV= 1 UseB2=F ITyADJ=14
 ICtDFT=  3500011 ScaDFX=  1.000000  1.000000  1.000000  1.000000
 FoFCou: FMM=F IPFlag=           8 FMFlag=      100000 FMFlg1=           0
         NFxFlg=           0 DoJE=T BraDBF=F KetDBF=T FulRan=T
         wScrn=  0.000000 ICntrl=       500 IOpCl=  0 I1Cent=   200000004 NGrid=           0
         NMat0=    1 NMatS0=      1 NMatT0=    0 NMatD0=    1 NMtDS0=    0 NMtDT0=    0
 Petite list used in FoFCou.
 Harris En= -499.561284100967    
 JPrj=0 DoOrth=F DoCkMO=F.
 Initial guess <Sx>= 0.0000 <Sy>= 0.0000 <Sz>= 0.5000 <S**2>= 0.7500 S= 0.5000
 Leave Link  401 at Wed Oct 25 09:53:49 2023, MaxMem=   104857600 cpu:              16.9 elap:               0.5
 (Enter /opt/uochb/soft/gaussian/gaussian16_a03/arch/amd64-pgi_12.10-acml/g16/l502.exe)
 Integral symmetry usage will be decided dynamically.
 UHF open shell SCF:
 Using DIIS extrapolation, IDIIS=  1040.
 NGot=   104857600 LenX=   104627112 LenY=   104519087
 Requested convergence on RMS density matrix=1.00D-08 within 128 cycles.
 Requested convergence on MAX density matrix=1.00D-06.
 Requested convergence on             energy=1.00D-06.
 No special actions if energy rises.
 GSVD:  LWork=     -102384 too small for GESVD, short by      504020 words or      504020 for optimal perf.
 Fock matrices will be formed incrementally for  20 cycles.

 Cycle   1  Pass 1  IDiag  1:
 FoFJK:  IHMeth= 1 ICntrl=       0 DoSepK=F KAlg= 0 I1Cent=           0 FoldK=F
 IRaf= 760000000 NMat=       1 IRICut=       1 DoRegI=T DoRafI=F ISym2E= 0 IDoP0=0 IntGTp=1.
 FoFCou: FMM=F IPFlag=           8 FMFlag=      100000 FMFlg1=           0
         NFxFlg=           0 DoJE=F BraDBF=F KetDBF=F FulRan=T
         wScrn=  0.000000 ICntrl=         0 IOpCl=  1 I1Cent=           0 NGrid=           0
         NMat0=    1 NMatS0=      1 NMatT0=    0 NMatD0=    1 NMtDS0=    0 NMtDT0=    0
 Symmetry not used in FoFCou.
 Inv3:  Mode=1 IEnd=    11619072.
 Iteration    1 A*A^-1 deviation from unit magnitude is 5.11D-15 for    234.
 Iteration    1 A*A^-1 deviation from orthogonality  is 2.87D-15 for    487    207.
 Iteration    1 A^-1*A deviation from unit magnitude is 5.11D-15 for    208.
 Iteration    1 A^-1*A deviation from orthogonality  is 1.85D-15 for   1164    512.
 E= -499.293022439228    
 DIIS: error= 2.50D-02 at cycle   1 NSaved=   1.
 NSaved= 1 IEnMin= 1 EnMin= -499.293022439228     IErMin= 1 ErrMin= 2.50D-02
 ErrMax= 2.50D-02  0.00D+00 EMaxC= 1.00D-01 BMatC= 9.09D-01 BMatP= 9.09D-01
 IDIUse=3 WtCom= 7.50D-01 WtEn= 2.50D-01
 Coeff-Com:  0.100D+01
 Coeff-En:   0.100D+01
 Coeff:      0.100D+01
 Gap=     0.238 Goal=   None    Shift=    0.000
 Gap=     0.138 Goal=   None    Shift=    0.000
 GapD=    0.138 DampG=1.000 DampE=0.500 DampFc=0.5000 IDamp=-1.
 Damping current iteration by 5.00D-01
 RMSDP=3.62D-03 MaxDP=1.20D-01              OVMax= 1.89D-01

 Cycle   2  Pass 1  IDiag  1:
 RMSU=  1.64D-03    CP:  9.40D-01
 E= -499.393566505547     Delta-E=       -0.100544066319 Rises=F Damp=T
 DIIS: error= 1.10D-02 at cycle   2 NSaved=   2.
 NSaved= 2 IEnMin= 2 EnMin= -499.393566505547     IErMin= 2 ErrMin= 1.10D-02
 ErrMax= 1.10D-02  0.00D+00 EMaxC= 1.00D-01 BMatC= 8.82D-02 BMatP= 9.09D-01
 IDIUse=3 WtCom= 8.90D-01 WtEn= 1.10D-01
 Coeff-Com:  0.129D-02 0.999D+00
 Coeff-En:   0.781D-02 0.992D+00
 Coeff:      0.201D-02 0.998D+00
 Gap=     0.219 Goal=   None    Shift=    0.000
 Gap=     0.174 Goal=   None    Shift=    0.000
 RMSDP=1.22D-03 MaxDP=5.80D-02 DE=-1.01D-01 OVMax= 1.23D-01

 Cycle   3  Pass 1  IDiag  1:
 RMSU=  9.95D-04    CP:  9.02D-01  1.33D+00
 E= -499.495238685034     Delta-E=       -0.101672179487 Rises=F Damp=F
 DIIS: error= 1.35D-02 at cycle   3 NSaved=   3.
 NSaved= 3 IEnMin= 3 EnMin= -499.495238685034     IErMin= 2 ErrMin= 1.10D-02
 ErrMax= 1.35D-02  0.00D+00 EMaxC= 1.00D-01 BMatC= 5.03D-02 BMatP= 8.82D-02
 IDIUse=3 WtCom= 8.65D-01 WtEn= 1.35D-01
 Coeff-Com: -0.697D-01 0.446D+00 0.623D+00
 Coeff-En:   0.000D+00 0.000D+00 0.100D+01
 Coeff:     -0.602D-01 0.386D+00 0.674D+00
 Gap=     0.187 Goal=   None    Shift=    0.000
 Gap=     0.132 Goal=   None    Shift=    0.000
 RMSDP=4.84D-04 MaxDP=4.58D-02 DE=-1.02D-01 OVMax= 5.98D-02

 Cycle   4  Pass 1  IDiag  1:
 RMSU=  3.53D-04    CP:  9.10D-01  1.36D+00  6.85D-01
 E= -499.501659385619     Delta-E=       -0.006420700584 Rises=F Damp=F
 DIIS: error= 7.48D-03 at cycle   4 NSaved=   4.
 NSaved= 4 IEnMin= 4 EnMin= -499.501659385619     IErMin= 4 ErrMin= 7.48D-03
 ErrMax= 7.48D-03  0.00D+00 EMaxC= 1.00D-01 BMatC= 2.09D-02 BMatP= 5.03D-02
 IDIUse=3 WtCom= 9.25D-01 WtEn= 7.48D-02
 Coeff-Com: -0.270D-01 0.828D-01 0.413D+00 0.531D+00
 Coeff-En:   0.000D+00 0.000D+00 0.326D+00 0.674D+00
 Coeff:     -0.250D-01 0.766D-01 0.407D+00 0.541D+00
 Gap=     0.178 Goal=   None    Shift=    0.000
 Gap=     0.131 Goal=   None    Shift=    0.000
 RMSDP=2.10D-04 MaxDP=2.20D-02 DE=-6.42D-03 OVMax= 2.95D-02

 Cycle   5  Pass 1  IDiag  1:
 RMSU=  8.48D-05    CP:  9.07D-01  1.35D+00  8.01D-01  5.81D-01
 E= -499.506402994463     Delta-E=       -0.004743608844 Rises=F Damp=F
 DIIS: error= 1.15D-03 at cycle   5 NSaved=   5.
 NSaved= 5 IEnMin= 5 EnMin= -499.506402994463     IErMin= 5 ErrMin= 1.15D-03
 ErrMax= 1.15D-03  0.00D+00 EMaxC= 1.00D-01 BMatC= 4.38D-04 BMatP= 2.09D-02
 IDIUse=3 WtCom= 9.89D-01 WtEn= 1.15D-02
 Coeff-Com: -0.783D-02 0.166D-01 0.151D+00 0.246D+00 0.595D+00
 Coeff-En:   0.000D+00 0.000D+00 0.000D+00 0.000D+00 0.100D+01
 Coeff:     -0.774D-02 0.164D-01 0.149D+00 0.243D+00 0.599D+00
 Gap=     0.178 Goal=   None    Shift=    0.000
 Gap=     0.132 Goal=   None    Shift=    0.000
 RMSDP=3.86D-05 MaxDP=3.05D-03 DE=-4.74D-03 OVMax= 4.26D-03

 Cycle   6  Pass 1  IDiag  1:
 RMSU=  2.79D-05    CP:  9.06D-01  1.35D+00  8.02D-01  6.07D-01  7.19D-01
 E= -499.506507236809     Delta-E=       -0.000104242346 Rises=F Damp=F
 DIIS: error= 3.75D-04 at cycle   6 NSaved=   6.
 NSaved= 6 IEnMin= 6 EnMin= -499.506507236809     IErMin= 6 ErrMin= 3.75D-04
 ErrMax= 3.75D-04  0.00D+00 EMaxC= 1.00D-01 BMatC= 3.56D-05 BMatP= 4.38D-04
 IDIUse=3 WtCom= 9.96D-01 WtEn= 3.75D-03
 Coeff-Com: -0.267D-03-0.245D-02 0.119D-01 0.360D-01 0.234D+00 0.721D+00
 Coeff-En:   0.000D+00 0.000D+00 0.000D+00 0.000D+00 0.000D+00 0.100D+01
 Coeff:     -0.266D-03-0.244D-02 0.119D-01 0.358D-01 0.233D+00 0.722D+00
 Gap=     0.178 Goal=   None    Shift=    0.000
 Gap=     0.132 Goal=   None    Shift=    0.000
 RMSDP=1.39D-05 MaxDP=1.23D-03 DE=-1.04D-04 OVMax= 2.00D-03

 Cycle   7  Pass 1  IDiag  1:
 RMSU=  1.02D-05    CP:  9.07D-01  1.35D+00  8.02D-01  6.18D-01  8.18D-01
                    CP:  9.70D-01
 E= -499.506521012645     Delta-E=       -0.000013775837 Rises=F Damp=F
 DIIS: error= 1.13D-04 at cycle   7 NSaved=   7.
 NSaved= 7 IEnMin= 7 EnMin= -499.506521012645     IErMin= 7 ErrMin= 1.13D-04
 ErrMax= 1.13D-04  0.00D+00 EMaxC= 1.00D-01 BMatC= 4.52D-06 BMatP= 3.56D-05
 IDIUse=3 WtCom= 9.99D-01 WtEn= 1.13D-03
 Coeff-Com:  0.143D-02-0.334D-02-0.282D-01-0.423D-01-0.103D+00 0.113D+00
 Coeff-Com:  0.106D+01
 Coeff-En:   0.000D+00 0.000D+00 0.000D+00 0.000D+00 0.000D+00 0.000D+00
 Coeff-En:   0.100D+01
 Coeff:      0.142D-02-0.333D-02-0.282D-01-0.423D-01-0.102D+00 0.113D+00
 Coeff:      0.106D+01
 Gap=     0.179 Goal=   None    Shift=    0.000
 Gap=     0.132 Goal=   None    Shift=    0.000
 RMSDP=8.40D-06 MaxDP=9.23D-04 DE=-1.38D-05 OVMax= 1.41D-03

 Cycle   8  Pass 1  IDiag  1:
 RMSU=  3.83D-06    CP:  9.06D-01  1.35D+00  8.03D-01  6.21D-01  8.57D-01
                    CP:  1.17D+00  1.31D+00
 E= -499.506524169003     Delta-E=       -0.000003156358 Rises=F Damp=F
 DIIS: error= 3.95D-05 at cycle   8 NSaved=   8.
 NSaved= 8 IEnMin= 8 EnMin= -499.506524169003     IErMin= 8 ErrMin= 3.95D-05
 ErrMax= 3.95D-05  0.00D+00 EMaxC= 1.00D-01 BMatC= 5.85D-07 BMatP= 4.52D-06
 IDIUse=1 WtCom= 1.00D+00 WtEn= 0.00D+00
 Coeff-Com:  0.234D-03-0.242D-03-0.692D-02-0.106D-01-0.532D-01-0.501D-01
 Coeff-Com:  0.157D+00 0.964D+00
 Coeff:      0.234D-03-0.242D-03-0.692D-02-0.106D-01-0.532D-01-0.501D-01
 Coeff:      0.157D+00 0.964D+00
 Gap=     0.179 Goal=   None    Shift=    0.000
 Gap=     0.132 Goal=   None    Shift=    0.000
 RMSDP=3.17D-06 MaxDP=3.01D-04 DE=-3.16D-06 OVMax= 4.74D-04

 Cycle   9  Pass 1  IDiag  1:
 RMSU=  1.58D-06    CP:  9.06D-01  1.35D+00  8.03D-01  6.22D-01  8.61D-01
                    CP:  1.24D+00  1.50D+00  1.12D+00
 E= -499.506524527027     Delta-E=       -0.000000358023 Rises=F Damp=F
 DIIS: error= 1.93D-05 at cycle   9 NSaved=   9.
 NSaved= 9 IEnMin= 9 EnMin= -499.506524527027     IErMin= 9 ErrMin= 1.93D-05
 ErrMax= 1.93D-05  0.00D+00 EMaxC= 1.00D-01 BMatC= 1.41D-07 BMatP= 5.85D-07
 IDIUse=1 WtCom= 1.00D+00 WtEn= 0.00D+00
 Coeff-Com: -0.115D-03 0.400D-03 0.553D-03 0.118D-02-0.112D-01-0.322D-01
 Coeff-Com: -0.757D-01 0.409D+00 0.708D+00
 Coeff:     -0.115D-03 0.400D-03 0.553D-03 0.118D-02-0.112D-01-0.322D-01
 Coeff:     -0.757D-01 0.409D+00 0.708D+00
 Gap=     0.179 Goal=   None    Shift=    0.000
 Gap=     0.132 Goal=   None    Shift=    0.000
 RMSDP=9.26D-07 MaxDP=8.03D-05 DE=-3.58D-07 OVMax= 1.86D-04

 Cycle  10  Pass 1  IDiag  1:
 RMSU=  5.46D-07    CP:  9.06D-01  1.35D+00  8.03D-01  6.23D-01  8.63D-01
                    CP:  1.25D+00  1.54D+00  1.27D+00  9.88D-01
 E= -499.506524577359     Delta-E=       -0.000000050333 Rises=F Damp=F
 DIIS: error= 5.00D-06 at cycle  10 NSaved=  10.
 NSaved=10 IEnMin=10 EnMin= -499.506524577359     IErMin=10 ErrMin= 5.00D-06
 ErrMax= 5.00D-06  0.00D+00 EMaxC= 1.00D-01 BMatC= 1.34D-08 BMatP= 1.41D-07
 IDIUse=1 WtCom= 1.00D+00 WtEn= 0.00D+00
 Coeff-Com: -0.759D-04 0.151D-03 0.103D-02 0.197D-02 0.460D-02 0.178D-02
 Coeff-Com: -0.430D-01-0.521D-01 0.160D+00 0.925D+00
 Coeff:     -0.759D-04 0.151D-03 0.103D-02 0.197D-02 0.460D-02 0.178D-02
 Coeff:     -0.430D-01-0.521D-01 0.160D+00 0.925D+00
 Gap=     0.179 Goal=   None    Shift=    0.000
 Gap=     0.132 Goal=   None    Shift=    0.000
 RMSDP=3.87D-07 MaxDP=3.13D-05 DE=-5.03D-08 OVMax= 6.70D-05

 Cycle  11  Pass 1  IDiag  1:
 RMSU=  1.62D-07    CP:  9.06D-01  1.35D+00  8.03D-01  6.23D-01  8.62D-01
                    CP:  1.25D+00  1.55D+00  1.32D+00  1.14D+00  1.08D+00
 E= -499.506524584239     Delta-E=       -0.000000006880 Rises=F Damp=F
 DIIS: error= 1.10D-06 at cycle  11 NSaved=  11.
 NSaved=11 IEnMin=11 EnMin= -499.506524584239     IErMin=11 ErrMin= 1.10D-06
 ErrMax= 1.10D-06  0.00D+00 EMaxC= 1.00D-01 BMatC= 5.15D-10 BMatP= 1.34D-08
 IDIUse=1 WtCom= 1.00D+00 WtEn= 0.00D+00
 Coeff-Com:  0.963D-05-0.361D-04-0.732D-04-0.135D-03 0.116D-02 0.379D-02
 Coeff-Com:  0.934D-02-0.491D-01-0.738D-01-0.271D-01 0.114D+01
 Coeff:      0.963D-05-0.361D-04-0.732D-04-0.135D-03 0.116D-02 0.379D-02
 Coeff:      0.934D-02-0.491D-01-0.738D-01-0.271D-01 0.114D+01
 Gap=     0.179 Goal=   None    Shift=    0.000
 Gap=     0.132 Goal=   None    Shift=    0.000
 RMSDP=1.29D-07 MaxDP=1.28D-05 DE=-6.88D-09 OVMax= 2.17D-05

 Cycle  12  Pass 1  IDiag  1:
 RMSU=  4.53D-08    CP:  9.06D-01  1.35D+00  8.03D-01  6.23D-01  8.62D-01
                    CP:  1.25D+00  1.55D+00  1.33D+00  1.19D+00  1.21D+00
                    CP:  1.22D+00
 E= -499.506524584749     Delta-E=       -0.000000000510 Rises=F Damp=F
 DIIS: error= 2.57D-07 at cycle  12 NSaved=  12.
 NSaved=12 IEnMin=12 EnMin= -499.506524584749     IErMin=12 ErrMin= 2.57D-07
 ErrMax= 2.57D-07  0.00D+00 EMaxC= 1.00D-01 BMatC= 2.49D-11 BMatP= 5.15D-10
 IDIUse=1 WtCom= 1.00D+00 WtEn= 0.00D+00
 Coeff-Com:  0.318D-05-0.487D-05-0.375D-04-0.740D-04-0.228D-03-0.587D-03
 Coeff-Com:  0.128D-02 0.595D-02 0.891D-03-0.366D-01-0.718D-01 0.110D+01
 Coeff:      0.318D-05-0.487D-05-0.375D-04-0.740D-04-0.228D-03-0.587D-03
 Coeff:      0.128D-02 0.595D-02 0.891D-03-0.366D-01-0.718D-01 0.110D+01
 Gap=     0.179 Goal=   None    Shift=    0.000
 Gap=     0.132 Goal=   None    Shift=    0.000
 RMSDP=1.89D-08 MaxDP=1.89D-06 DE=-5.10D-10 OVMax= 2.16D-06

 Cycle  13  Pass 1  IDiag  1:
 RMSU=  1.11D-08    CP:  9.06D-01  1.35D+00  8.03D-01  6.23D-01  8.62D-01
                    CP:  1.25D+00  1.55D+00  1.34D+00  1.19D+00  1.22D+00
                    CP:  1.29D+00  1.17D+00
 E= -499.506524584758     Delta-E=       -0.000000000008 Rises=F Damp=F
 DIIS: error= 1.73D-07 at cycle  13 NSaved=  13.
 NSaved=13 IEnMin=13 EnMin= -499.506524584758     IErMin=13 ErrMin= 1.73D-07
 ErrMax= 1.73D-07  0.00D+00 EMaxC= 1.00D-01 BMatC= 1.02D-11 BMatP= 2.49D-11
 IDIUse=1 WtCom= 1.00D+00 WtEn= 0.00D+00
 Coeff-Com:  0.926D-06-0.950D-07-0.141D-04-0.285D-04-0.182D-03-0.540D-03
 Coeff-Com:  0.909D-04 0.590D-02 0.501D-02-0.160D-01-0.107D+00 0.541D+00
 Coeff-Com:  0.572D+00
 Coeff:      0.926D-06-0.950D-07-0.141D-04-0.285D-04-0.182D-03-0.540D-03
 Coeff:      0.909D-04 0.590D-02 0.501D-02-0.160D-01-0.107D+00 0.541D+00
 Coeff:      0.572D+00
 Gap=     0.179 Goal=   None    Shift=    0.000
 Gap=     0.132 Goal=   None    Shift=    0.000
 RMSDP=8.22D-09 MaxDP=8.07D-07 DE=-8.41D-12 OVMax= 1.89D-06

 Error on total polarization charges =  0.01082
 SCF Done:  E(UPBE1PBE) =  -499.506524585     A.U. after   13 cycles
            NFock= 13  Conv=0.82D-08     -V/T= 2.0074
 <Sx>= 0.0000 <Sy>= 0.0000 <Sz>= 0.5000 <S**2>= 0.7645 S= 0.5072
 <L.S>= 0.000000000000E+00
 KE= 4.958327252594D+02 PE=-2.531078025856D+03 EE= 8.421929280375D+02
 Annihilation of the first spin contaminant:
 S**2 before annihilation     0.7645,   after     0.7501
 Leave Link  502 at Wed Oct 25 09:54:13 2023, MaxMem=   104857600 cpu:             832.0 elap:              23.9
 (Enter /opt/uochb/soft/gaussian/gaussian16_a03/arch/amd64-pgi_12.10-acml/g16/l801.exe)
 DoSCS=F DFT=T ScalE2(SS,OS)=  1.000000  1.000000
 Range of M.O.s used for correlation:     1   316
 NBasis=   316 NAE=    45 NBE=    44 NFC=     0 NFV=     0
 NROrb=    316 NOA=    45 NOB=    44 NVA=   271 NVB=   272

 **** Warning!!: The largest alpha MO coefficient is  0.18751838D+02


 **** Warning!!: The largest beta MO coefficient is  0.18741331D+02

 Leave Link  801 at Wed Oct 25 09:54:13 2023, MaxMem=   104857600 cpu:               1.3 elap:               0.1
 (Enter /opt/uochb/soft/gaussian/gaussian16_a03/arch/amd64-pgi_12.10-acml/g16/l1002.exe)
 Minotr:  UHF open shell wavefunction.
 NEqPCM:  Using equilibrium solvation (IEInf=0, Eps=  46.8260, EpsInf=   2.0079)
          Direct CPHF calculation.
          Differentiating once with respect to magnetic field using GIAOs.
          Electric field/nuclear overlap derivatives assumed to be zero.
          Requested convergence is 1.0D-08 RMS, and 1.0D-07 maximum.
          Secondary convergence is 1.0D-12 RMS, and 1.0D-12 maximum.
          NewPWx=T KeepS1=F KeepF1=F KeepIn=T MapXYZ=F SortEE=F KeepMc=T.
         8625 words used for storage of precomputed grid.
 Two-electron integral symmetry used by symmetrizing perturbed Fock matrices.
          MDV=     104857600 using IRadAn=       1.
          Solving linear equations simultaneously, MaxMat=     360.
 PrsmSu:  requested number of processors reduced to:  25 ShMem   1 Linda.
 FoFJK:  IHMeth= 1 ICntrl=    6127 DoSepK=F KAlg= 0 I1Cent=           0 FoldK=F
 IRaf=         1 NMat=       1 IRICut=       1 DoRegI=T DoRafI=F ISym2E= 0 IDoP0=0 IntGTp=1.
          There are     3 degrees of freedom in the 1st order CPHF.  IDoFFX=0 NUNeed=     3.
      3 vectors produced by pass  0 Test12= 8.05D-13 3.33D-08 XBig12= 6.03D+01 1.44D+00.
 AX will form     3 AO Fock derivatives at one time.
      3 vectors produced by pass  1 Test12= 8.05D-13 3.33D-08 XBig12= 1.52D-01 2.73D-01.
      3 vectors produced by pass  2 Test12= 8.05D-13 3.33D-08 XBig12= 2.19D-03 3.03D-02.
      3 vectors produced by pass  3 Test12= 8.05D-13 3.33D-08 XBig12= 6.00D-06 9.05D-04.
      3 vectors produced by pass  4 Test12= 8.05D-13 3.33D-08 XBig12= 2.12D-08 8.48D-05.
      3 vectors produced by pass  5 Test12= 8.05D-13 3.33D-08 XBig12= 7.15D-11 2.96D-06.
      2 vectors produced by pass  6 Test12= 8.05D-13 3.33D-08 XBig12= 1.30D-13 6.86D-08.
 InvSVY:  IOpt=1 It=  1 EMax= 8.39D-17
 Solved reduced A of dimension    20 with     3 vectors.
 Calculating GIAO nuclear magnetic shielding tensors.
 SCF GIAO Magnetic shielding tensor (ppm):
      1  C    Isotropic =    70.1460   Anisotropy =   159.0679
   XX=    48.7018   YX=   -21.9257   ZX=    -0.0012
   XY=   -12.0537   YY=   -14.4551   ZY=    -0.0008
   XZ=     0.0021   YZ=    -0.0047   ZZ=   176.1912
   Eigenvalues:   -18.7353    52.9821   176.1912
      2  C    Isotropic =    70.1461   Anisotropy =   159.0674
   XX=    48.7021   YX=    21.9252   ZX=    -0.0016
   XY=    12.0534   YY=   -14.4549   ZY=     0.0041
   XZ=     0.0025   YZ=     0.0082   ZZ=   176.1910
   Eigenvalues:   -18.7349    52.9822   176.1910
      3  C    Isotropic =    48.3140   Anisotropy =   154.6331
   XX=    -8.4721   YX=     0.0001   ZX=     0.0014
   XY=     0.0000   YY=     2.0114   ZY=    -0.0017
   XZ=     0.0006   YZ=     0.0098   ZZ=   151.4028
   Eigenvalues:    -8.4721     2.0114   151.4028
      4  C    Isotropic =    70.1459   Anisotropy =   159.0674
   XX=    48.7018   YX=   -21.9256   ZX=     0.0013
   XY=   -12.0538   YY=   -14.4550   ZY=     0.0010
   XZ=    -0.0019   YZ=     0.0050   ZZ=   176.1908
   Eigenvalues:   -18.7352    52.9821   176.1908
      5  C    Isotropic =    70.1463   Anisotropy =   159.0679
   XX=    48.7021   YX=    21.9253   ZX=     0.0016
   XY=    12.0533   YY=   -14.4547   ZY=    -0.0038
   XZ=    -0.0023   YZ=    -0.0078   ZZ=   176.1915
   Eigenvalues:   -18.7348    52.9822   176.1915
      6  C    Isotropic =    48.3142   Anisotropy =   154.6336
   XX=    -8.4723   YX=     0.0001   ZX=    -0.0014
   XY=     0.0000   YY=     2.0116   ZY=     0.0019
   XZ=    -0.0007   YZ=    -0.0095   ZZ=   151.4032
   Eigenvalues:    -8.4723     2.0116   151.4032
      7  N    Isotropic =   123.1740   Anisotropy =   108.8213
   XX=   118.4894   YX=    -0.0001   ZX=    -0.0009
   XY=     0.0003   YY=    55.3112   ZY=     0.0294
   XZ=    -0.0007   YZ=     0.0304   ZZ=   195.7216
   Eigenvalues:    55.3111   118.4894   195.7216
      8  N    Isotropic =   123.1750   Anisotropy =   108.8240
   XX=   118.4887   YX=    -0.0001   ZX=     0.0008
   XY=     0.0002   YY=    55.3120   ZY=    -0.0295
   XZ=     0.0006   YZ=    -0.0304   ZZ=   195.7244
   Eigenvalues:    55.3120   118.4887   195.7244
      9  C    Isotropic =   152.1091   Anisotropy =    54.6591
   XX=   144.4428   YX=    31.3633   ZX=    -0.0119
   XY=    23.1085   YY=   171.7299   ZY=    -0.0145
   XZ=    -0.0049   YZ=    -0.0134   ZZ=   140.1546
   Eigenvalues:   127.6242   140.1546   188.5485
     10  C    Isotropic =   152.1091   Anisotropy =    54.6593
   XX=   144.4432   YX=   -31.3636   ZX=     0.0127
   XY=   -23.1089   YY=   171.7296   ZY=    -0.0149
   XZ=     0.0058   YZ=    -0.0132   ZZ=   140.1546
   Eigenvalues:   127.6242   140.1546   188.5487
     11  C    Isotropic =   152.1087   Anisotropy =    54.6596
   XX=   144.4425   YX=    31.3634   ZX=     0.0119
   XY=    23.1085   YY=   171.7298   ZY=     0.0146
   XZ=     0.0048   YZ=     0.0135   ZZ=   140.1538
   Eigenvalues:   127.6240   140.1538   188.5484
     12  C    Isotropic =   152.1087   Anisotropy =    54.6599
   XX=   144.4430   YX=   -31.3637   ZX=    -0.0128
   XY=   -23.1089   YY=   171.7295   ZY=     0.0149
   XZ=    -0.0059   YZ=     0.0132   ZZ=   140.1536
   Eigenvalues:   127.6239   140.1536   188.5486
     13  H    Isotropic =    24.2126   Anisotropy =     9.8674
   XX=    30.2444   YX=    -2.7428   ZX=    -0.0010
   XY=    -1.3865   YY=    22.9900   ZY=    -0.0005
   XZ=    -0.0021   YZ=     0.0011   ZZ=    19.4035
   Eigenvalues:    19.4035    22.4435    30.7909
     14  H    Isotropic =    24.2127   Anisotropy =     9.8672
   XX=    30.2444   YX=     2.7427   ZX=    -0.0011
   XY=     1.3865   YY=    22.9901   ZY=     0.0005
   XZ=    -0.0023   YZ=    -0.0013   ZZ=    19.4036
   Eigenvalues:    19.4036    22.4436    30.7908
     15  H    Isotropic =    24.2126   Anisotropy =     9.8673
   XX=    30.2444   YX=    -2.7428   ZX=     0.0010
   XY=    -1.3865   YY=    22.9900   ZY=     0.0005
   XZ=     0.0021   YZ=    -0.0011   ZZ=    19.4035
   Eigenvalues:    19.4035    22.4435    30.7909
     16  H    Isotropic =    24.2127   Anisotropy =     9.8672
   XX=    30.2444   YX=     2.7427   ZX=     0.0011
   XY=     1.3865   YY=    22.9901   ZY=    -0.0005
   XZ=     0.0023   YZ=     0.0013   ZZ=    19.4036
   Eigenvalues:    19.4036    22.4436    30.7908
     17  H    Isotropic =    27.8111   Anisotropy =     7.4280
   XX=    29.2644   YX=     0.9900   ZX=    -0.0014
   XY=    -1.8636   YY=    32.7086   ZY=    -0.0067
   XZ=    -0.0004   YZ=    -0.0088   ZZ=    21.4603
   Eigenvalues:    21.4603    29.2099    32.7631
     18  H    Isotropic =    28.7313   Anisotropy =     8.9800
   XX=    29.4859   YX=     1.8409   ZX=     3.7512
   XY=     3.3736   YY=    28.0790   ZY=     2.3105
   XZ=     4.4777   YZ=     1.3956   ZZ=    28.6290
   Eigenvalues:    24.8532    26.6228    34.7179
     19  H    Isotropic =    28.7312   Anisotropy =     8.9784
   XX=    29.4918   YX=     1.8365   ZX=    -3.7529
   XY=     3.3717   YY=    28.0778   ZY=    -2.3065
   XZ=    -4.4817   YZ=    -1.3903   ZZ=    28.6242
   Eigenvalues:    24.8507    26.6262    34.7168
     20  H    Isotropic =    27.8112   Anisotropy =     7.4280
   XX=    29.2644   YX=    -0.9900   ZX=     0.0016
   XY=     1.8636   YY=    32.7087   ZY=    -0.0068
   XZ=     0.0006   YZ=    -0.0090   ZZ=    21.4605
   Eigenvalues:    21.4605    29.2098    32.7632
     21  H    Isotropic =    28.7313   Anisotropy =     8.9800
   XX=    29.4859   YX=    -1.8410   ZX=    -3.7511
   XY=    -3.3736   YY=    28.0790   ZY=     2.3106
   XZ=    -4.4777   YZ=     1.3957   ZZ=    28.6290
   Eigenvalues:    24.8532    26.6226    34.7180
     22  H    Isotropic =    28.7313   Anisotropy =     8.9783
   XX=    29.4919   YX=    -1.8364   ZX=     3.7529
   XY=    -3.3716   YY=    28.0778   ZY=    -2.3064
   XZ=     4.4818   YZ=    -1.3902   ZZ=    28.6242
   Eigenvalues:    24.8507    26.6263    34.7168
     23  H    Isotropic =    27.8111   Anisotropy =     7.4280
   XX=    29.2644   YX=     0.9900   ZX=     0.0014
   XY=    -1.8636   YY=    32.7086   ZY=     0.0067
   XZ=     0.0004   YZ=     0.0088   ZZ=    21.4603
   Eigenvalues:    21.4603    29.2099    32.7631
     24  H    Isotropic =    28.7313   Anisotropy =     8.9800
   XX=    29.4859   YX=     1.8409   ZX=    -3.7512
   XY=     3.3736   YY=    28.0790   ZY=    -2.3105
   XZ=    -4.4778   YZ=    -1.3956   ZZ=    28.6289
   Eigenvalues:    24.8531    26.6227    34.7179
     25  H    Isotropic =    28.7312   Anisotropy =     8.9784
   XX=    29.4918   YX=     1.8365   ZX=     3.7529
   XY=     3.3717   YY=    28.0777   ZY=     2.3065
   XZ=     4.4818   YZ=     1.3903   ZZ=    28.6241
   Eigenvalues:    24.8507    26.6261    34.7168
     26  H    Isotropic =    27.8112   Anisotropy =     7.4280
   XX=    29.2644   YX=    -0.9900   ZX=    -0.0016
   XY=     1.8636   YY=    32.7087   ZY=     0.0069
   XZ=    -0.0006   YZ=     0.0091   ZZ=    21.4605
   Eigenvalues:    21.4605    29.2099    32.7632
     27  H    Isotropic =    28.7312   Anisotropy =     8.9801
   XX=    29.4858   YX=    -1.8410   ZX=     3.7511
   XY=    -3.3736   YY=    28.0789   ZY=    -2.3106
   XZ=     4.4777   YZ=    -1.3957   ZZ=    28.6289
   Eigenvalues:    24.8531    26.6226    34.7179
     28  H    Isotropic =    28.7312   Anisotropy =     8.9784
   XX=    29.4919   YX=    -1.8364   ZX=    -3.7529
   XY=    -3.3717   YY=    28.0777   ZY=     2.3063
   XZ=    -4.4819   YZ=     1.3901   ZZ=    28.6240
   Eigenvalues:    24.8506    26.6263    34.7168
 PrsmSu:  requested number of processors reduced to:  27 ShMem   1 Linda.
 g value of the free electron [g_e]: 0.20023193D+01
 relativistic mass correction [g_RMC]:-0.20556976D-03
 diamagnetic correction to g tensor [g_DC]:
   XX= 0.12174189D-03   YX=-0.49352747D-10   ZX=-0.14671004D-10
   XY=-0.12361983D-09   YY= 0.50865136D-04   ZY=-0.13206684D-10
   XZ=-0.16625960D-09   YZ=-0.33144903D-09   ZZ= 0.19996450D-04
 orbital Zeeman and spin-orbit coupling contribution to g tensor [g_OZ/SOC]:
   XX= 0.10369324D-02   YX= 0.13736344D-08   ZX= 0.59176698D-09
   XY= 0.14195384D-08   YY= 0.19006751D-02   ZY= 0.40127411D-09
   XZ=-0.16947924D-09   YZ= 0.23867760D-08   ZZ= 0.32395645D-04
 g tensor [g = g_e + g_RMC + g_DC + g_OZ/SOC]:
   XX= 0.20032724D+01   YX= 0.13242817D-08   ZX= 0.57709598D-09
   XY= 0.12959186D-08   YY= 0.20040653D+01   ZY= 0.38806743D-09
   XZ=-0.33573883D-09   YZ= 0.20553270D-08   ZZ= 0.20021661D+01
 g shifts relative to the free electron (ppm):
   xx=         -153.2   yy=          953.1   zz=         1746.0
 End of Minotr F.D. properties file   721 does not exist.
 End of Minotr F.D. properties file   722 does not exist.
 End of Minotr F.D. properties file   788 does not exist.
 Leave Link 1002 at Wed Oct 25 09:54:25 2023, MaxMem=   104857600 cpu:             369.8 elap:              11.1
 (Enter /opt/uochb/soft/gaussian/gaussian16_a03/arch/amd64-pgi_12.10-acml/g16/l601.exe)
 Copying SCF densities to generalized density rwf, IOpCl= 1 IROHF=0.

 **********************************************************************

            Population analysis using the SCF density.

 **********************************************************************

 Orbital symmetries:
 Alpha Orbitals:
       Occupied  (A) (A) (A) (A) (A) (A) (A) (A) (A) (A) (A) (A)
                 (A) (A) (A) (A) (A) (A) (A) (A) (A) (A) (A) (A)
                 (A) (A) (A) (A) (A) (A) (A) (A) (A) (A) (A) (A)
                 (A) (A) (A) (A) (A) (A) (A) (A) (A)
       Virtual   (A) (A) (A) (A) (A) (A) (A) (A) (A) (A) (A) (A)
                 (A) (A) (A) (A) (A) (A) (A) (A) (A) (A) (A) (A)
                 (A) (A) (A) (A) (A) (A) (A) (A) (A) (A) (A) (A)
                 (A) (A) (A) (A) (A) (A) (A) (A) (A) (A) (A) (A)
                 (A) (A) (A) (A) (A) (A) (A) (A) (A) (A) (A) (A)
                 (A) (A) (A) (A) (A) (A) (A) (A) (A) (A) (A) (A)
                 (A) (A) (A) (A) (A) (A) (A) (A) (A) (A) (A) (A)
                 (A) (A) (A) (A) (A) (A) (A) (A) (A) (A) (A) (A)
                 (A) (A) (A) (A) (A) (A) (A) (A) (A) (A) (A) (A)
                 (A) (A) (A) (A) (A) (A) (A) (A) (A) (A) (A) (A)
                 (A) (A) (A) (A) (A) (A) (A) (A) (A) (A) (A) (A)
                 (A) (A) (A) (A) (A) (A) (A) (A) (A) (A) (A) (A)
                 (A) (A) (A) (A) (A) (A) (A) (A) (A) (A) (A) (A)
                 (A) (A) (A) (A) (A) (A) (A) (A) (A) (A) (A) (A)
                 (A) (A) (A) (A) (A) (A) (A) (A) (A) (A) (A) (A)
                 (A) (A) (A) (A) (A) (A) (A) (A) (A) (A) (A) (A)
                 (A) (A) (A) (A) (A) (A) (A) (A) (A) (A) (A) (A)
                 (A) (A) (A) (A) (A) (A) (A) (A) (A) (A) (A) (A)
                 (A) (A) (A) (A) (A) (A) (A) (A) (A) (A) (A) (A)
                 (A) (A) (A) (A) (A) (A) (A) (A) (A) (A) (A) (A)
                 (A) (A) (A) (A) (A) (A) (A) (A) (A) (A) (A) (A)
                 (A) (A) (A) (A) (A) (A) (A) (A) (A) (A) (A) (A)
                 (A) (A) (A) (A) (A) (A) (A)
 Beta  Orbitals:
       Occupied  (A) (A) (A) (A) (A) (A) (A) (A) (A) (A) (A) (A)
                 (A) (A) (A) (A) (A) (A) (A) (A) (A) (A) (A) (A)
                 (A) (A) (A) (A) (A) (A) (A) (A) (A) (A) (A) (A)
                 (A) (A) (A) (A) (A) (A) (A) (A)
       Virtual   (A) (A) (A) (A) (A) (A) (A) (A) (A) (A) (A) (A)
                 (A) (A) (A) (A) (A) (A) (A) (A) (A) (A) (A) (A)
                 (A) (A) (A) (A) (A) (A) (A) (A) (A) (A) (A) (A)
                 (A) (A) (A) (A) (A) (A) (A) (A) (A) (A) (A) (A)
                 (A) (A) (A) (A) (A) (A) (A) (A) (A) (A) (A) (A)
                 (A) (A) (A) (A) (A) (A) (A) (A) (A) (A) (A) (A)
                 (A) (A) (A) (A) (A) (A) (A) (A) (A) (A) (A) (A)
                 (A) (A) (A) (A) (A) (A) (A) (A) (A) (A) (A) (A)
                 (A) (A) (A) (A) (A) (A) (A) (A) (A) (A) (A) (A)
                 (A) (A) (A) (A) (A) (A) (A) (A) (A) (A) (A) (A)
                 (A) (A) (A) (A) (A) (A) (A) (A) (A) (A) (A) (A)
                 (A) (A) (A) (A) (A) (A) (A) (A) (A) (A) (A) (A)
                 (A) (A) (A) (A) (A) (A) (A) (A) (A) (A) (A) (A)
                 (A) (A) (A) (A) (A) (A) (A) (A) (A) (A) (A) (A)
                 (A) (A) (A) (A) (A) (A) (A) (A) (A) (A) (A) (A)
                 (A) (A) (A) (A) (A) (A) (A) (A) (A) (A) (A) (A)
                 (A) (A) (A) (A) (A) (A) (A) (A) (A) (A) (A) (A)
                 (A) (A) (A) (A) (A) (A) (A) (A) (A) (A) (A) (A)
                 (A) (A) (A) (A) (A) (A) (A) (A) (A) (A) (A) (A)
                 (A) (A) (A) (A) (A) (A) (A) (A) (A) (A) (A) (A)
                 (A) (A) (A) (A) (A) (A) (A) (A) (A) (A) (A) (A)
                 (A) (A) (A) (A) (A) (A) (A) (A) (A) (A) (A) (A)
                 (A) (A) (A) (A) (A) (A) (A) (A)
 The electronic state is 2-A.
 Alpha  occ. eigenvalues --  -14.48714 -14.48714 -10.33224 -10.33224 -10.28025
 Alpha  occ. eigenvalues --  -10.28025 -10.28024 -10.28024 -10.27888 -10.27887
 Alpha  occ. eigenvalues --  -10.27816 -10.27816  -1.02863  -1.02513  -0.90427
 Alpha  occ. eigenvalues --   -0.81586  -0.81357  -0.77144  -0.76095  -0.74846
 Alpha  occ. eigenvalues --   -0.68299  -0.65591  -0.62011  -0.58608  -0.55525
 Alpha  occ. eigenvalues --   -0.54330  -0.52085  -0.51785  -0.50043  -0.49626
 Alpha  occ. eigenvalues --   -0.47358  -0.45113  -0.44903  -0.43591  -0.43001
 Alpha  occ. eigenvalues --   -0.42996  -0.42815  -0.42711  -0.42651  -0.40884
 Alpha  occ. eigenvalues --   -0.37450  -0.37026  -0.30491  -0.30419  -0.21849
 Alpha virt. eigenvalues --   -0.03968  -0.01519   0.01151   0.02164   0.04408
 Alpha virt. eigenvalues --    0.05099   0.05557   0.06035   0.07340   0.08186
 Alpha virt. eigenvalues --    0.09547   0.11198   0.11748   0.11801   0.12371
 Alpha virt. eigenvalues --    0.15227   0.15581   0.18140   0.18427   0.18686
 Alpha virt. eigenvalues --    0.18702   0.18818   0.19908   0.19976   0.20258
 Alpha virt. eigenvalues --    0.21548   0.22517   0.22931   0.23453   0.23517
 Alpha virt. eigenvalues --    0.24142   0.25016   0.25768   0.26108   0.28203
 Alpha virt. eigenvalues --    0.29088   0.29816   0.30097   0.30426   0.33160
 Alpha virt. eigenvalues --    0.33476   0.34348   0.34759   0.35486   0.35692
 Alpha virt. eigenvalues --    0.35891   0.37759   0.37836   0.37905   0.38899
 Alpha virt. eigenvalues --    0.40322   0.41818   0.42854   0.43350   0.44829
 Alpha virt. eigenvalues --    0.45131   0.45665   0.47185   0.47284   0.49470
 Alpha virt. eigenvalues --    0.49859   0.50359   0.50412   0.50594   0.53881
 Alpha virt. eigenvalues --    0.53931   0.57581   0.59477   0.61027   0.63925
 Alpha virt. eigenvalues --    0.65227   0.66629   0.67725   0.72010   0.73998
 Alpha virt. eigenvalues --    0.74826   0.78683   0.78756   0.79971   0.80824
 Alpha virt. eigenvalues --    0.82680   0.84052   0.86746   0.88394   0.88772
 Alpha virt. eigenvalues --    0.89636   0.90514   0.90831   0.90889   0.91678
 Alpha virt. eigenvalues --    0.93044   0.93892   0.94654   0.94848   0.95991
 Alpha virt. eigenvalues --    0.96157   0.96643   0.96874   0.97190   0.97525
 Alpha virt. eigenvalues --    0.98771   1.00858   1.01581   1.02060   1.02920
 Alpha virt. eigenvalues --    1.03427   1.03949   1.04731   1.08862   1.09925
 Alpha virt. eigenvalues --    1.13112   1.17685   1.20743   1.22597   1.22618
 Alpha virt. eigenvalues --    1.24259   1.24555   1.26924   1.29689   1.30392
 Alpha virt. eigenvalues --    1.38269   1.38350   1.39388   1.39987   1.40069
 Alpha virt. eigenvalues --    1.40730   1.41108   1.42131   1.43811   1.43833
 Alpha virt. eigenvalues --    1.44332   1.44878   1.45083   1.45833   1.47380
 Alpha virt. eigenvalues --    1.48869   1.50048   1.51182   1.51340   1.51970
 Alpha virt. eigenvalues --    1.54517   1.57899   1.58941   1.59194   1.61941
 Alpha virt. eigenvalues --    1.63515   1.63531   1.66871   1.67323   1.67995
 Alpha virt. eigenvalues --    1.68441   1.70260   1.71506   1.71918   1.72153
 Alpha virt. eigenvalues --    1.74038   1.74146   1.74752   1.75135   1.77988
 Alpha virt. eigenvalues --    1.80289   1.81404   1.84343   1.86784   1.92894
 Alpha virt. eigenvalues --    1.95355   1.95397   1.95730   1.98276   2.00781
 Alpha virt. eigenvalues --    2.01228   2.03333   2.04912   2.06846   2.07523
 Alpha virt. eigenvalues --    2.08017   2.08096   2.10818   2.12438   2.12521
 Alpha virt. eigenvalues --    2.13056   2.14959   2.19666   2.20193   2.23327
 Alpha virt. eigenvalues --    2.34709   2.37306   2.37459   2.37795   2.37827
 Alpha virt. eigenvalues --    2.42364   2.43782   2.45036   2.46321   2.48611
 Alpha virt. eigenvalues --    2.49001   2.50339   2.50524   2.51072   2.51840
 Alpha virt. eigenvalues --    2.52116   2.52899   2.54915   2.55810   2.55923
 Alpha virt. eigenvalues --    2.56465   2.57216   2.57366   2.59745   2.75318
 Alpha virt. eigenvalues --    2.82760   2.88020   2.98116   3.08481   3.36934
 Alpha virt. eigenvalues --    5.01783   5.02044   5.02786   5.03012   5.06818
 Alpha virt. eigenvalues --    5.07166   5.09634   5.10234   5.11557   5.15377
 Alpha virt. eigenvalues --    5.23379   5.29877   5.30009   5.30764   5.34865
 Alpha virt. eigenvalues --    5.43378   5.44387   5.47249   5.49391   5.55935
 Alpha virt. eigenvalues --    5.64920   5.65033   5.65087   5.74168   5.74178
 Alpha virt. eigenvalues --    6.12126   7.31897   7.36570  29.70629  29.97140
 Alpha virt. eigenvalues --   29.97919  30.02068  30.04136  30.05345  30.07691
 Alpha virt. eigenvalues --   30.17306  30.20698  30.48605  36.74737  36.74963
 Alpha virt. eigenvalues --   36.77224  36.77493  36.80610  36.81077  36.83541
 Alpha virt. eigenvalues --   36.83850  36.93081  36.94193  37.01826  37.04554
 Alpha virt. eigenvalues --   37.04797  37.07751  37.10970  37.14165  41.33275
 Alpha virt. eigenvalues --   41.36109
  Beta  occ. eigenvalues --  -14.47978 -14.47978 -10.33099 -10.33098 -10.28059
  Beta  occ. eigenvalues --  -10.28059 -10.28058 -10.28058 -10.27801 -10.27800
  Beta  occ. eigenvalues --  -10.27728 -10.27728  -1.01699  -1.01297  -0.89817
  Beta  occ. eigenvalues --   -0.81134  -0.81023  -0.77006  -0.75981  -0.74692
  Beta  occ. eigenvalues --   -0.67650  -0.65219  -0.61647  -0.58304  -0.55163
  Beta  occ. eigenvalues --   -0.54089  -0.50532  -0.50260  -0.49842  -0.49249
  Beta  occ. eigenvalues --   -0.47283  -0.44799  -0.44796  -0.43386  -0.42765
  Beta  occ. eigenvalues --   -0.42758  -0.42582  -0.42574  -0.41594  -0.40840
  Beta  occ. eigenvalues --   -0.36879  -0.35350  -0.29844  -0.26695
  Beta virt. eigenvalues --   -0.13521  -0.02598   0.00801   0.01225   0.02230
  Beta virt. eigenvalues --    0.04442   0.05244   0.05614   0.06164   0.07480
  Beta virt. eigenvalues --    0.08234   0.09720   0.11452   0.11805   0.12660
  Beta virt. eigenvalues --    0.12690   0.15441   0.15614   0.18357   0.18819
  Beta virt. eigenvalues --    0.18842   0.18978   0.18991   0.20025   0.20227
  Beta virt. eigenvalues --    0.21011   0.21888   0.22723   0.23033   0.23634
[...]
   20       0.4678       -0.6129       1.0806        -1.2496       1.7174
   30       1.7530        0.1117       1.6412        -0.2000       1.9529
   31       1.3885        1.7411      -0.3526        -0.7760       2.1645
   32      25.1444        1.5939      23.5505         2.1830      22.9615
 Sum       26.8444        3.1918      23.6527        -4.7891      31.6336
 
 Leave Link  607 at Wed Oct 25 09:54:46 2023, MaxMem=   104857600 cpu:             210.8 elap:              17.3
 (Enter /opt/uochb/soft/gaussian/gaussian16_a03/arch/amd64-pgi_12.10-acml/g16/l9999.exe)

 Test job not archived.
 1\1\GINC-B048\SP\UPBE1PBE\EPR-II\C10H16N2(1+,2)\JANTAR44\25-Oct-2023\0
 \\#p pbe1pbe/epr-II scrf(cpcm,solvent=dmso) scf(maxcycle=512) integral
 (grid=ultrafine,noxctest) gfinput iop(6/7=3) iop(6/82=1) iop(3/32=2) i
 op(5/13=1) output(SpinRotation) pop=nbo\\EPR params. calculation of TM
 PDA^{.+} in DMSO\\1,2\C,0,-1.745493,1.0616,-0.281526\C,0,-1.219554,-0.
 162775,0.04549\C,0,-2.047281,-1.291663,0.345007\C,0,-3.458759,-1.06158
 9,0.281566\C,0,-3.984699,0.16278,-0.04547\C,0,-3.156972,1.291667,-0.34
 4993\N,0,-3.678314,2.505343,-0.669174\N,0,-1.525939,-2.505345,0.669166
 \C,0,-2.873246,3.687565,-0.982585\C,0,-5.112813,2.788437,-0.747158\C,0
 ,-2.331008,-3.68739,0.983243\C,0,-0.091438,-2.788621,0.746464\H,0,-1.0
 45152,1.856898,-0.492394\H,0,-0.142431,-0.244593,0.068986\H,0,-4.1591,
 -1.856905,0.492367\H,0,-5.061822,0.244624,-0.068869\H,0,-1.808509,3.49
 2168,-0.9279\H,0,-3.116829,4.029117,-1.993753\H,0,-3.120929,4.486974,-
 0.276863\H,0,-5.721022,1.921026,-0.517999\H,0,-5.359222,3.587548,-0.04
 0648\H,0,-5.355811,3.131385,-1.75799\H,0,-3.395747,-3.491495,0.930424\
 H,0,-2.084805,-4.486595,0.276768\H,0,-2.085942,-4.029492,1.993864\H,0,
 0.516774,-1.921725,0.515375\H,0,0.152353,-3.130066,1.757619\H,0,0.1541
 75,-3.588877,0.04098\\Version=ES64L-G16RevA.03\State=2-A\HF=-499.50652
 46\S2=0.764467\S2-1=0.\S2A=0.750063\RMSD=8.223e-09\Dipole=-0.0000026,0
 .0000047,-0.0000082\Quadrupole=-1.2617941,18.5177939,-17.2559998,-10.9
 042245,2.9339306,-10.2792163\PG=C01 [X(C10H16N2)]\\@
 DoSRE=T DoSRN=T DoDH=T DoFC=T DoNQ=T DoQCD=F DoSCD=F
 Inertia tensor (amu-bohr**2): 
                 1             2             3 
      1   0.351989D+04  0.112980D+04 -0.302766D+03
      2   0.112980D+04  0.141807D+04  0.865868D+03
      3  -0.302766D+03  0.865868D+03  0.443018D+04
 Principal inertia moments (amu-bohr**2):
 Iaa = 0.701487D+03 Ibb= 0.400531D+04 Icc= 0.466134D+04
 Rotation matrix to Principal Axis frame: 
                 1             2             3 
      1   0.383310D+00 -0.923619D+00  0.147389D-02
      2  -0.892338D+00 -0.370739D+00 -0.257460D+00
      3   0.238341D+00  0.973716D-01 -0.966288D+00
                Principal axis orientation:                
 ---------------------------------------------------------------------
 Center     Atomic                     Coordinates (Angstroms)
 Number     Number                        X           Y           Z
 ---------------------------------------------------------------------
      1          6                   -0.686050   -1.212191   -0.000020
      2          6                    0.686046   -1.212193   -0.000009
      3          6                    1.447507   -0.000002   -0.000005
      4          6                    0.686050    1.212191   -0.000018
      5          6                   -0.686045    1.212194   -0.000008
      6          6                   -1.447507    0.000003   -0.000006
      7          7                   -2.807618    0.000001    0.000005
      8          7                    2.807618   -0.000001    0.000007
      9          6                   -3.628668   -1.212388   -0.000338
     10          6                   -3.628677    1.212384    0.000361
     11          6                    3.628668    1.212388   -0.000339
     12          6                    3.628677   -1.212385    0.000361
     13          1                   -1.177535   -2.174420    0.000014
     14          1                    1.177527   -2.174423   -0.000060
     15          1                    1.177536    2.174419    0.000017
     16          1                   -1.177526    2.174424   -0.000057
     17          1                   -3.033150   -2.118033   -0.001303
     18          1                   -4.267818   -1.212495    0.888447
     19          1                   -4.268748   -1.211277   -0.888449
     20          1                   -3.033168    2.118034    0.001354
     21          1                   -4.267815    1.212505   -0.888434
     22          1                   -4.268769    1.211251    0.888462
     23          1                    3.033150    2.118032   -0.001305
     24          1                    4.267819    1.212496    0.888445
     25          1                    4.268748    1.211277   -0.888452
     26          1                    3.033168   -2.118034    0.001365
     27          1                    4.267808   -1.212510   -0.888438
     28          1                    4.268776   -1.211246    0.888458
 ---------------------------------------------------------------------
 Rotational constants (MHZ):
   2572.7363942    450.5874296    387.1721065
 electronic spin - molecular rotation tensor [epsilon] (MHZ):
   aa=    -4.9042   ba=     0.0000   ca=     0.0000
   ab=     0.0000   bb=    -1.5734   cb=     0.0000
   ac=     0.0000   bc=     0.0000   cc=     0.1186
 nuclear spin - molecular rotation tensor [C] (MHz):
  7  N14   
   aa=     0.0002   ba=     0.0000   ca=     0.0000
   ab=     0.0000   bb=     0.0001   cb=     0.0000
   ac=     0.0000   bc=     0.0000   cc=     0.0000
  8  N14   
   aa=     0.0002   ba=     0.0000   ca=     0.0000
   ab=     0.0000   bb=     0.0001   cb=     0.0000
   ac=     0.0000   bc=     0.0000   cc=     0.0000
 13  H1    
   aa=    -0.0002   ba=     0.0002   ca=     0.0000
   ab=     0.0000   bb=     0.0000   cb=     0.0000
   ac=     0.0000   bc=     0.0000   cc=     0.0000
 14  H1    
   aa=    -0.0002   ba=    -0.0002   ca=     0.0000
   ab=     0.0000   bb=     0.0000   cb=     0.0000
   ac=     0.0000   bc=     0.0000   cc=     0.0000
 15  H1    
   aa=    -0.0002   ba=     0.0002   ca=     0.0000
   ab=     0.0000   bb=     0.0000   cb=     0.0000
   ac=     0.0000   bc=     0.0000   cc=     0.0000
 16  H1    
   aa=    -0.0002   ba=    -0.0002   ca=     0.0000
   ab=     0.0000   bb=     0.0000   cb=     0.0000
   ac=     0.0000   bc=     0.0000   cc=     0.0000
 17  H1    
   aa=    -0.0002   ba=    -0.0002   ca=     0.0000
   ab=     0.0000   bb=     0.0000   cb=     0.0000
   ac=     0.0000   bc=     0.0000   cc=     0.0000
 18  H1    
   aa=    -0.0002   ba=     0.0000   ca=    -0.0002
   ab=     0.0000   bb=    -0.0001   cb=     0.0000
   ac=     0.0000   bc=     0.0000   cc=     0.0000
 19  H1    
   aa=    -0.0002   ba=     0.0000   ca=     0.0002
   ab=     0.0000   bb=    -0.0001   cb=     0.0000
   ac=     0.0000   bc=     0.0000   cc=     0.0000
 20  H1    
   aa=    -0.0002   ba=     0.0002   ca=     0.0000
   ab=     0.0000   bb=     0.0000   cb=     0.0000
   ac=     0.0000   bc=     0.0000   cc=     0.0000
 21  H1    
   aa=    -0.0002   ba=     0.0000   ca=     0.0002
   ab=     0.0000   bb=    -0.0001   cb=     0.0000
   ac=     0.0000   bc=     0.0000   cc=     0.0000
 22  H1    
   aa=    -0.0002   ba=     0.0000   ca=    -0.0002
   ab=     0.0000   bb=    -0.0001   cb=     0.0000
   ac=     0.0000   bc=     0.0000   cc=     0.0000
 23  H1    
   aa=    -0.0002   ba=    -0.0002   ca=     0.0000
   ab=     0.0000   bb=     0.0000   cb=     0.0000
   ac=     0.0000   bc=     0.0000   cc=     0.0000
 24  H1    
   aa=    -0.0002   ba=     0.0000   ca=     0.0002
   ab=     0.0000   bb=    -0.0001   cb=     0.0000
   ac=     0.0000   bc=     0.0000   cc=     0.0000
 25  H1    
   aa=    -0.0002   ba=     0.0000   ca=    -0.0002
   ab=     0.0000   bb=    -0.0001   cb=     0.0000
   ac=     0.0000   bc=     0.0000   cc=     0.0000
 26  H1    
   aa=    -0.0002   ba=     0.0002   ca=     0.0000
   ab=     0.0000   bb=     0.0000   cb=     0.0000
   ac=     0.0000   bc=     0.0000   cc=     0.0000
 27  H1    
   aa=    -0.0002   ba=     0.0000   ca=    -0.0002
   ab=     0.0000   bb=    -0.0001   cb=     0.0000
   ac=     0.0000   bc=     0.0000   cc=     0.0000
 28  H1    
   aa=    -0.0002   ba=     0.0000   ca=     0.0002
   ab=     0.0000   bb=    -0.0001   cb=     0.0000
   ac=     0.0000   bc=     0.0000   cc=     0.0000
 electron spin - nuclear spin (dipole-dipole) [T] (MHz):
  1  C12   
   aa=     0.0000   ba=     0.0000   ca=     0.0000
   ab=     0.0000   bb=     0.0000   cb=     0.0000
   ac=     0.0000   bc=     0.0000   cc=     0.0000
  2  C12   
   aa=     0.0000   ba=     0.0000   ca=     0.0000
   ab=     0.0000   bb=     0.0000   cb=     0.0000
   ac=     0.0000   bc=     0.0000   cc=     0.0000
  3  C12   
   aa=     0.0000   ba=     0.0000   ca=     0.0000
   ab=     0.0000   bb=     0.0000   cb=     0.0000
   ac=     0.0000   bc=     0.0000   cc=     0.0000
  4  C12   
   aa=     0.0000   ba=     0.0000   ca=     0.0000
   ab=     0.0000   bb=     0.0000   cb=     0.0000
   ac=     0.0000   bc=     0.0000   cc=     0.0000
  5  C12   
   aa=     0.0000   ba=     0.0000   ca=     0.0000
   ab=     0.0000   bb=     0.0000   cb=     0.0000
   ac=     0.0000   bc=     0.0000   cc=     0.0000
  6  C12   
   aa=     0.0000   ba=     0.0000   ca=     0.0000
   ab=     0.0000   bb=     0.0000   cb=     0.0000
   ac=     0.0000   bc=     0.0000   cc=     0.0000
  7  N14   
   aa=   -15.0459   ba=     0.0000   ca=     0.0004
   ab=     0.0000   bb=   -14.9814   cb=    -0.0128
   ac=     0.0004   bc=    -0.0128   cc=    30.0273
  8  N14   
   aa=   -15.0459   ba=     0.0000   ca=    -0.0004
   ab=     0.0000   bb=   -14.9814   cb=     0.0128
   ac=    -0.0004   bc=     0.0128   cc=    30.0273
  9  C12   
   aa=     0.0000   ba=     0.0000   ca=     0.0000
   ab=     0.0000   bb=     0.0000   cb=     0.0000
   ac=     0.0000   bc=     0.0000   cc=     0.0000
 10  C12   
   aa=     0.0000   ba=     0.0000   ca=     0.0000
   ab=     0.0000   bb=     0.0000   cb=     0.0000
   ac=     0.0000   bc=     0.0000   cc=     0.0000
 11  C12   
   aa=     0.0000   ba=     0.0000   ca=     0.0000
   ab=     0.0000   bb=     0.0000   cb=     0.0000
   ac=     0.0000   bc=     0.0000   cc=     0.0000
 12  C12   
   aa=     0.0000   ba=     0.0000   ca=     0.0000
   ab=     0.0000   bb=     0.0000   cb=     0.0000
   ac=     0.0000   bc=     0.0000   cc=     0.0000
 13  H1    
   aa=    -2.2554   ba=     1.0240   ca=    -0.0001
   ab=     1.0240   bb=     4.5320   cb=     0.0009
   ac=    -0.0001   bc=     0.0009   cc=    -2.2765
 14  H1    
   aa=    -2.2554   ba=    -1.0240   ca=    -0.0001
   ab=    -1.0240   bb=     4.5320   cb=    -0.0008
   ac=    -0.0001   bc=    -0.0008   cc=    -2.2766
 15  H1    
   aa=    -2.2554   ba=     1.0240   ca=     0.0001
   ab=     1.0240   bb=     4.5320   cb=    -0.0009
   ac=     0.0001   bc=    -0.0009   cc=    -2.2766
 16  H1    
   aa=    -2.2554   ba=    -1.0240   ca=     0.0001
   ab=    -1.0240   bb=     4.5320   cb=     0.0008
   ac=     0.0001   bc=     0.0008   cc=    -2.2765
 17  H1    
   aa=    -1.0014   ba=     1.5104   ca=     0.0012
   ab=     1.5104   bb=     3.0705   cb=     0.0028
   ac=     0.0012   bc=     0.0028   cc=    -2.0691
 18  H1    
   aa=     1.5223   ba=     2.4456   ca=    -1.7367
   ab=     2.4456   bb=     0.1376   cb=    -1.1303
   ac=    -1.7367   bc=    -1.1303   cc=    -1.6599
 19  H1    
   aa=     1.5258   ba=     2.4446   ca=     1.7372
   ab=     2.4446   bb=     0.1344   cb=     1.1301
   ac=     1.7372   bc=     1.1301   cc=    -1.6602
 20  H1    
   aa=    -1.0014   ba=    -1.5104   ca=    -0.0012
   ab=    -1.5104   bb=     3.0705   cb=     0.0028
   ac=    -0.0012   bc=     0.0028   cc=    -2.0691
 21  H1    
   aa=     1.5223   ba=    -2.4456   ca=     1.7367
   ab=    -2.4456   bb=     0.1376   cb=    -1.1302
   ac=     1.7367   bc=    -1.1302   cc=    -1.6599
 22  H1    
   aa=     1.5258   ba=    -2.4446   ca=    -1.7372
   ab=    -2.4446   bb=     0.1343   cb=     1.1301
   ac=    -1.7372   bc=     1.1301   cc=    -1.6602
 23  H1    
   aa=    -1.0014   ba=     1.5104   ca=    -0.0012
   ab=     1.5104   bb=     3.0705   cb=    -0.0028
   ac=    -0.0012   bc=    -0.0028   cc=    -2.0691
 24  H1    
   aa=     1.5223   ba=     2.4456   ca=     1.7367
   ab=     2.4456   bb=     0.1376   cb=     1.1303
   ac=     1.7367   bc=     1.1303   cc=    -1.6600
 25  H1    
   aa=     1.5257   ba=     2.4446   ca=    -1.7372
   ab=     2.4446   bb=     0.1344   cb=    -1.1301
   ac=    -1.7372   bc=    -1.1301   cc=    -1.6602
 26  H1    
   aa=    -1.0014   ba=    -1.5104   ca=     0.0012
   ab=    -1.5104   bb=     3.0705   cb=    -0.0029
   ac=     0.0012   bc=    -0.0029   cc=    -2.0691
 27  H1    
   aa=     1.5223   ba=    -2.4456   ca=    -1.7367
   ab=    -2.4456   bb=     0.1376   cb=     1.1303
   ac=    -1.7367   bc=     1.1303   cc=    -1.6599
 28  H1    
   aa=     1.5259   ba=    -2.4446   ca=     1.7372
   ab=    -2.4446   bb=     0.1343   cb=    -1.1301
   ac=     1.7372   bc=    -1.1301   cc=    -1.6602
 Isotropic Fermi Contact Couplings [a_f](MHz):
  1  C12        0.0000
  2  C12        0.0000
  3  C12        0.0000
  4  C12        0.0000
  5  C12        0.0000
  6  C12        0.0000
  7  N14       17.5207
  8  N14       17.5208
  9  C12        0.0000
 10  C12        0.0000
 11  C12        0.0000
 12  C12        0.0000
 13  H1        -5.2393
 14  H1        -5.2392
 15  H1        -5.2393
 16  H1        -5.2392
 17  H1         0.6543
 18  H1        30.0651
 19  H1        30.0374
 20  H1         0.6543
 21  H1        30.0666
 22  H1        30.0361
 23  H1         0.6543
 24  H1        30.0650
 25  H1        30.0375
 26  H1         0.6543
 27  H1        30.0668
 28  H1        30.0357
 Nuclear quadrupole coupling constants [Chi] (MHz):
  7  N(14) 
   aa=     2.1089   ba=     0.0000   ca=     0.0000
   ab=     0.0000   bb=     1.5633   cb=     0.0017
   ac=     0.0000   bc=     0.0017   cc=    -3.6722
  8  N(14) 
   aa=     2.1089   ba=     0.0000   ca=     0.0000
   ab=     0.0000   bb=     1.5633   cb=    -0.0017
   ac=     0.0000   bc=    -0.0017   cc=    -3.6723
 Dipole moment (Debye):
     -0.0000182     -0.0000005      0.0000171  Tot=      0.0000250

 Atoms with significant hyperfine tensors:  N7-14,N8-14,H13-1,H14-1,H15-1,H16-1,H
 17-1,H18-1,H19-1,H20-1,H21-1,H22-1,H23-1,H24-1,H25-1,H26-1,H27-1,H28-1
 The first  8 will be included in Pickett input.
 Atoms in Picket input:  N7-14,N8-14,H13-1,H14-1,H15-1,H16-1,H17-1,H18-1

--------------------------------------------------------------------------------
 EPR params. calculation of TMPDA^{.+} in DMSO           
   99  1000  50  0.1760E-11  0.1000E+07  0.1000E+01 1.0000000000
a 222222332  1  0  0  0  1  1   1  0  1  0
     10000   0.25727364E+04    0.0000E+00   /  A  /
     20000   0.45058743E+03    0.0000E+00   /  B  /
     30000   0.38717211E+03    0.0000E+00   /  C  /
  10010000  -0.49041733E+01    0.0000E+00   /  epsilon_aa  /
  10020000  -0.15734247E+01    0.0000E+00   /  epsilon_bb  /
  10030000   0.11861224E+00    0.0000E+00   /  epsilon_cc  /
 120010000  -0.22568829E+02    0.0000E+00   /  (7 N-14) 3/2*T_aa               /
 120040000  -0.11252183E+02    0.0000E+00   /  (7 N-14) 1/4*(T_bb - T_cc)      /
 120210000  -0.12785783E-01    0.0000E+00   /  (7 N-14) T_bc                   /
 130010000  -0.22568834E+02    0.0000E+00   /  (8 N-14) 3/2*T_aa               /
 130040000  -0.11252186E+02    0.0000E+00   /  (8 N-14) 1/4*(T_bb - T_cc)      /
 130210000   0.12832171E-01    0.0000E+00   /  (8 N-14) T_bc                   /
 140010000  -0.33831306E+01    0.0000E+00   /  (13 H-1) 3/2*T_aa               /
 140040000   0.17021289E+01    0.0000E+00   /  (13 H-1) 1/4*(T_bb - T_cc)      /
 140610000   0.10240072E+01    0.0000E+00   /  (13 H-1) T_ab                   /
 150010000  -0.33831217E+01    0.0000E+00   /  (14 H-1) 3/2*T_aa               /
 150040000   0.17021289E+01    0.0000E+00   /  (14 H-1) 1/4*(T_bb - T_cc)      /
 150610000  -0.10239652E+01    0.0000E+00   /  (14 H-1) T_ab                   /
 160010000  -0.33831129E+01    0.0000E+00   /  (15 H-1) 3/2*T_aa               /
 160040000   0.17021298E+01    0.0000E+00   /  (15 H-1) 1/4*(T_bb - T_cc)      /
 160610000   0.10239963E+01    0.0000E+00   /  (15 H-1) T_ab                   /
 170010000  -0.33831428E+01    0.0000E+00   /  (16 H-1) 3/2*T_aa               /
 170040000   0.17021294E+01    0.0000E+00   /  (16 H-1) 1/4*(T_bb - T_cc)      /
 170610000  -0.10239781E+01    0.0000E+00   /  (16 H-1) T_ab                   /
 180010000  -0.15020591E+01    0.0000E+00   /  (17 H-1) 3/2*T_aa               /
 180040000   0.12849147E+01    0.0000E+00   /  (17 H-1) 1/4*(T_bb - T_cc)      /
 180610000   0.15103768E+01    0.0000E+00   /  (17 H-1) T_ab                   /
 190010000   0.22834901E+01    0.0000E+00   /  (18 H-1) 3/2*T_aa               /
 190040000   0.44939115E+00    0.0000E+00   /  (18 H-1) 1/4*(T_bb - T_cc)      /
 190610000   0.24455941E+01    0.0000E+00   /  (18 H-1) T_ab                   /
 190410000  -0.17367206E+01    0.0000E+00   /  (18 H-1) T_ac                   /
 190210000  -0.11302877E+01    0.0000E+00   /  (18 H-1) T_bc                   /
 120000000   0.17520733E+02    0.0000E+00   /  (7 N-14) b_f                    /
 130000000   0.17520779E+02    0.0000E+00   /  (8 N-14) b_f                    /
 140000000  -0.52392569E+01    0.0000E+00   /  (13 H-1) b_f                    /
 150000000  -0.52392133E+01    0.0000E+00   /  (14 H-1) b_f                    /
 160000000  -0.52392520E+01    0.0000E+00   /  (15 H-1) b_f                    /
 170000000  -0.52392249E+01    0.0000E+00   /  (16 H-1) b_f                    /
 180000000   0.65433818E+00    0.0000E+00   /  (17 H-1) b_f                    /
 190000000   0.30065106E+02    0.0000E+00   /  (18 H-1) b_f                    /
 220010000   0.31633651E+01    0.0000E+00   /  (7 N-14) 3/2*Chi_aa             /
 220040000   0.13088941E+01    0.0000E+00   /  (7 N-14) 1/4*(Chi_bb-Chi_cc)    /
 330010000   0.31633737E+01    0.0000E+00   /  (8 N-14) 3/2*Chi_aa             /
 330040000   0.13088986E+01    0.0000E+00   /  (8 N-14) 1/4*(Chi_bb-Chi_cc)    /
  20010000   0.24871201E-03    0.0000E+00   /  (7 N-14) C_aa                   /
  30010000   0.24871291E-03    0.0000E+00   /  (8 N-14) C_aa                   /
  40010000  -0.18291883E-03    0.0000E+00   /  (13 H-1) C_aa                   /
  40610000   0.13127071E-03    0.0000E+00   /  (13 H-1) (C_ab+C_ba)/2          /
  50010000  -0.18292127E-03    0.0000E+00   /  (14 H-1) C_aa                   /
  50610000  -0.13126991E-03    0.0000E+00   /  (14 H-1) (C_ab+C_ba)/2          /
  60010000  -0.18291873E-03    0.0000E+00   /  (15 H-1) C_aa                   /
  60610000   0.13127066E-03    0.0000E+00   /  (15 H-1) (C_ab+C_ba)/2          /
  70010000  -0.18292130E-03    0.0000E+00   /  (16 H-1) C_aa                   /
  70610000  -0.13126995E-03    0.0000E+00   /  (16 H-1) (C_ab+C_ba)/2          /
  80010000  -0.16291572E-03    0.0000E+00   /  (17 H-1) C_aa                   /
  80610000  -0.10231447E-03    0.0000E+00   /  (17 H-1) (C_ab+C_ba)/2          /
  90010000  -0.15881253E-03    0.0000E+00   /  (18 H-1) C_aa                   /
  90410000  -0.11275785E-03    0.0000E+00   /  (18 H-1) (C_ac+C_ca)/2          /
--------------------------------------------------------------------------------



 ONE OF THE BENEFITS OF A COLLEGE EDUCATION
 IS TO SHOW THE BOY ITS LITTLE AVAIL 
                                    EMERSON IN 'CULTURE'
 Job cpu time:       0 days  0 hours 24 minutes 41.0 seconds.
 Elapsed time:       0 days  0 hours  0 minutes 58.1 seconds.
 File lengths (MBytes):  RWF=    133 Int=      0 D2E=      0 Chk=     11 Scr=      1
 Normal termination of Gaussian 16 at Wed Oct 25 09:54:46 2023.
